<UPF version="2.0.1">
<PP_INFO>
Generated by new atomic code, or converted to UPF format
Author:
Generation date:
Pseudopotential type: US
Element: Br
Functional: SLA  PW   PBE  PBE
Suggested minimum cutoff for wavefunctions:  30. Ry
Suggested minimum cutoff for charge density: 300. Ry
The Pseudo was generated with a Scalar-Relativistic Calculation
L component and cutoff radius for Local Potential:  0   0.0000
Valence configuration:
nl pn  l   occ       Rcut    Rcut US       E pseu
4S  0  0  2.00      0.000      1.715     0.000000
4P  0  1  5.00      0.000      1.700     0.000000
Generation configuration: not available.
</PP_INFO>
<!--
END OF HUMAN READABLE SECTION
-->
<PP_HEADER generated="Generated by new atomic code, or converted to UPF format" author="" date="" comment="" element="Br" pseudo_type="US" relativistic="scalar" is_ultrasoft="true" is_paw="false" is_coulomb="false" has_so="false" has_wfc="false" has_gipaw="false" paw_as_gipaw="false" core_correction="false" functional="SLA  PW   PBE  PBE" z_valence="7.000000000000e0" total_psenergy="-2.656682283030e1" wfc_cutoff="3.000000000000e1" rho_cutoff="3.000000000000e2" l_max="1" l_max_rho="0" l_local="0" mesh_size="823" number_of_wfc="2" number_of_proj="4"/>
<PP_MESH mesh="823" rmax="7.958729252670e1" zmesh="3.500000000000e1">
<PP_R>
0.000000000000000e0 1.210594545140000e-6 2.441882514510000e-6 3.694217633310001e-6
4.967959673200000e-6 6.263474555600000e-6 7.581134456880000e-6 8.921317915229999e-6
1.028440993940000e-5 1.167080211940000e-5 1.308089273890000e-5 1.451508688950000e-5
1.597379658760000e-5 1.745744089210000e-5 1.896644602550000e-5 2.050124549560000e-5
2.206228022070000e-5 2.364999865580000e-5 2.526485692170000e-5 2.690731893589999e-5
2.857785654600000e-5 3.027694966520000e-5 3.200508640990000e-5 3.376276324050000e-5
3.555048510350001e-5 3.736876557670000e-5 3.921812701700000e-5 4.109910071020001e-5
4.301222702350000e-5 4.495805556120000e-5 4.693714532210000e-5 4.895006486040000e-5
5.099739244890000e-5 5.307971624530000e-5 5.519763446090000e-5 5.735175553260000e-5
5.954269829769999e-5 6.177109217160000e-5 6.403757732890001e-5 6.634280488669999e-5
6.868743709250000e-5 7.107214751360001e-5 7.349762123120001e-5 7.596455503710001e-5
7.847365763339999e-5 8.102564983689998e-5 8.362126478550000e-5 8.626124814920001e-5
8.894635834399999e-5 9.167736675030000e-5 9.445505793389998e-5 9.728022987170000e-5
1.001536941810000e-4 1.030762763520000e-4 1.060488159870000e-4 1.090721670380000e-4
1.121471980560000e-4 1.152747924380000e-4 1.184558486810000e-4 1.216912806410000e-4
1.249820177940000e-4 1.283290055070000e-4 1.317332053040000e-4 1.351955951450000e-4
1.387171697080000e-4 1.422989406740000e-4 1.459419370150000e-4 1.496472052950000e-4
1.534158099650000e-4 1.572488336730000e-4 1.611473775710000e-4 1.651125616360000e-4
1.691455249890000e-4 1.732474262220000e-4 1.774194437320000e-4 1.816627760590000e-4
1.859786422300000e-4 1.903682821090000e-4 1.948329567570000e-4 1.993739487860000e-4
2.039925627370000e-4 2.086901254470000e-4 2.134679864360000e-4 2.183275182900000e-4
2.232701170600000e-4 2.282972026570000e-4 2.334102192670000e-4 2.386106357600000e-4
2.438999461150000e-4 2.492796698489999e-4 2.547513524520000e-4 2.603165658330000e-4
2.659769087700000e-4 2.717340073700000e-4 2.775895155350001e-4 2.835451154410000e-4
2.896025180150000e-4 2.957634634320000e-4 3.020297216129999e-4 3.084030927320000e-4
3.148854077360000e-4 3.214785288680000e-4 3.281843502050000e-4 3.350047981980000e-4
3.419418322310000e-4 3.489974451800000e-4 3.561736639850000e-4 3.634725502350000e-4
3.708962007590000e-4 3.784467482280001e-4 3.861263617690000e-4 3.939372475850000e-4
4.018816495939999e-4 4.099618500669999e-4 4.181801702910000e-4 4.265389712290000e-4
4.350406542040000e-4 4.436876615839999e-4 4.524824774880001e-4 4.614276284950000e-4
4.705256843739999e-4 4.797792588220000e-4 4.891910102100000e-4 4.987636423530001e-4
5.084999052830000e-4 5.184025960399998e-4 5.284745594740001e-4 5.387186890670000e-4
5.491379277590001e-4 5.597352687950002e-4 5.705137565860000e-4 5.814764875830000e-4
5.926266111670000e-4 6.039673305520000e-4 6.155019037080000e-4 6.272336442949999e-4
6.391659226130000e-4 6.513021665770000e-4 6.636458626930000e-4 6.762005570679999e-4
6.889698564220001e-4 7.019574291270001e-4 7.151670062610000e-4 7.286023826819999e-4
7.422674181120000e-4 7.561660382510000e-4 7.703022359039999e-4 7.846800721280001e-4
7.993036773960000e-4 8.141772527870000e-4 8.293050711919999e-4 8.446914785400001e-4
8.603408950480000e-4 8.762578164900001e-4 8.924468154909999e-4 9.089125428360001e-4
9.256597288100000e-4 9.426931845559999e-4 9.600178034560001e-4 9.776385625369999e-4
9.955605239030000e-4 1.013788836190000e-3 1.032328736030000e-3 1.051185549580000e-3
1.070364694050000e-3 1.089871679230000e-3 1.109712109090000e-3 1.129891683410000e-3
1.150416199390000e-3 1.171291553330000e-3 1.192523742310000e-3 1.214118865920000e-3
1.236083128040000e-3 1.258422838560000e-3 1.281144415260000e-3 1.304254385600000e-3
1.327759388640000e-3 1.351666176890000e-3 1.375981618330000e-3 1.400712698300000e-3
1.425866521570000e-3 1.451450314340000e-3 1.477471426350000e-3 1.503937332940000e-3
1.530855637280000e-3 1.558234072460000e-3 1.586080503780000e-3 1.614402930990000e-3
1.643209490550000e-3 1.672508458050000e-3 1.702308250510000e-3 1.732617428840000e-3
1.763444700260000e-3 1.794798920870000e-3 1.826689098120000e-3 1.859124393450000e-3
1.892114124880000e-3 1.925667769730000e-3 1.959794967310000e-3 1.994505521710000e-3
2.029809404590000e-3 2.065716758070000e-3 2.102237897660000e-3 2.139383315150000e-3
2.177163681720000e-3 2.215589850920000e-3 2.254672861860000e-3 2.294423942330000e-3
2.334854512040000e-3 2.375976185910000e-3 2.417800777410000e-3 2.460340301930000e-3
2.503606980250000e-3 2.547613242060000e-3 2.592371729490000e-3 2.637895300800000e-3
2.684197034030000e-3 2.731290230770000e-3 2.779188419990000e-3 2.827905361900000e-3
2.877455051940000e-3 2.927851724780000e-3 2.979109858420000e-3 3.031244178300000e-3
3.084269661630000e-3 3.138201541590000e-3 3.193055311780000e-3 3.248846730600000e-3
3.305591825870000e-3 3.363306899350000e-3 3.422008531470000e-3 3.481713586060000e-3
3.542439215230000e-3 3.604202864279999e-3 3.667022276720000e-3 3.730915499340000e-3
3.795900887430000e-3 3.861997110030000e-3 3.929223155320000e-3 3.997598336030000e-3
4.067142295020000e-3 4.137875010940000e-3 4.209816803930000e-3 4.282988341460000e-3
4.357410644300000e-3 4.433105092550001e-3 4.510093431750001e-3 4.588397779160000e-3
4.668040630109999e-3 4.749044864450000e-3 4.831433753120001e-3 4.915230964860000e-3
5.000460572990000e-3 5.087147062320000e-3 5.175315336199999e-3 5.264990723680000e-3
5.356198986750000e-3 5.448966327790000e-3 5.543319397060000e-3 5.639285300369999e-3
5.736891606860000e-3 5.836166356940000e-3 5.937138070320001e-3 6.039835754229999e-3
6.144288911719999e-3 6.250527550149999e-3 6.358582189849999e-3 6.468483872810000e-3
6.580264171650001e-3 6.693955198710000e-3 6.809589615200000e-3 6.927200640660001e-3
7.046822062460000e-3 7.168488245519999e-3 7.292234142190001e-3 7.418095302249999e-3
7.546107883199999e-3 7.676308660549999e-3 7.808735038490000e-3 7.943425060540000e-3
8.080417420540000e-3 8.219751473750001e-3 8.361467248149999e-3 8.505605455920001e-3
8.652207505200000e-3 8.801315511910000e-3 8.952972311890001e-3 9.107221473220001e-3
9.264107308689999e-3 9.423674888559999e-3 9.585970053520001e-3 9.751039427819999e-3
9.918930432700000e-3 1.008969130000000e-2 1.026337108600000e-2 1.044001968560000e-2
1.061968784640000e-2 1.080242718370000e-2 1.098829019490000e-2 1.117733027500000e-2
1.136960173130000e-2 1.156515979990000e-2 1.176406066070000e-2 1.196636145420000e-2
1.217212029740000e-2 1.238139630080000e-2 1.259424958550000e-2 1.281074130000000e-2
1.303093363820000e-2 1.325488985720000e-2 1.348267429510000e-2 1.371435239010000e-2
1.394999069880000e-2 1.418965691560000e-2 1.443341989180000e-2 1.468134965590000e-2
1.493351743340000e-2 1.518999566700000e-2 1.545085803810000e-2 1.571617948740000e-2
1.598603623660000e-2 1.626050581030000e-2 1.653966705820000e-2 1.682360017820000e-2
1.711238673850000e-2 1.740610970210000e-2 1.770485344980000e-2 1.800870380490000e-2
1.831774805780000e-2 1.863207499090000e-2 1.895177490420000e-2 1.927693964140000e-2
1.960766261600000e-2 1.994403883820000e-2 2.028616494250000e-2 2.063413921510000e-2
2.098806162230000e-2 2.134803383900000e-2 2.171415927840000e-2 2.208654312130000e-2
2.246529234620000e-2 2.285051576050000e-2 2.324232403150000e-2 2.364082971810000e-2
2.404614730320000e-2 2.445839322680000e-2 2.487768591900000e-2 2.530414583470000e-2
2.573789548750000e-2 2.617905948530000e-2 2.662776456590000e-2 2.708413963360000e-2
2.754831579619999e-2 2.802042640250000e-2 2.850060708070000e-2 2.898899577740000e-2
2.948573279730000e-2 2.999096084340000e-2 3.050482505770000e-2 3.102747306370000e-2
3.155905500790000e-2 3.209972360360000e-2 3.264963417430000e-2 3.320894469880000e-2
3.377781585610000e-2 3.435641107190000e-2 3.494489656549999e-2 3.554344139720000e-2
3.615221751760000e-2 3.677139981600000e-2 3.740116617180000e-2 3.804169750449999e-2
3.869317782630000e-2 3.935579429510000e-2 4.002973726760001e-2 4.071520035470000e-2
4.141238047669999e-2 4.212147791980000e-2 4.284269639400000e-2 4.357624309160000e-2
4.432232874620000e-2 4.508116769380000e-2 4.585297793420001e-2 4.663798119350000e-2
4.743640298790000e-2 4.824847268870000e-2 4.907442358760000e-2 4.991449296450000e-2
5.076892215490000e-2 5.163795661989999e-2 5.252184601620000e-2 5.342084426820000e-2
5.433520964060000e-2 5.526520481300000e-2 5.621109695500000e-2 5.717315780300001e-2
5.815166373860000e-2 5.914689586750001e-2 6.015914010069999e-2 6.118868723629999e-2
6.223583304340000e-2 6.330087834670000e-2 6.438412911300000e-2 6.548589653930000e-2
6.660649714220001e-2 6.774625284850000e-2 6.890549108790001e-2 7.008454488710001e-2
7.128375296559999e-2 7.250345983250001e-2 7.374401588610001e-2 7.500577751409999e-2
7.628910719610000e-2 7.759437360810000e-2 7.892195172770000e-2 8.027222294250000e-2
8.164557515920000e-2 8.304240291539999e-2 8.446310749270001e-2 8.590809703200000e-2
8.737778665079999e-2 8.887259856250001e-2 9.039296219770000e-2 9.193931432730000e-2
9.351209918860000e-2 9.511176861200001e-2 9.673878215169999e-2 9.839360721709999e-2
1.000767192080000e-1 1.017886016490000e-1 1.035297463310000e-1 1.053006534510000e-1
1.071018317580000e-1 1.089337986930000e-1 1.107970805470000e-1 1.126922126040000e-1
1.146197392980000e-1 1.165802143710000e-1 1.185742010290000e-1 1.206022721060000e-1
1.226650102280000e-1 1.247630079800000e-1 1.268968680750000e-1 1.290672035300000e-1
1.312746378410000e-1 1.335198051610000e-1 1.358033504830000e-1 1.381259298250000e-1
1.404882104190000e-1 1.428908709040000e-1 1.453346015160000e-1 1.478201042920000e-1
1.503480932700000e-1 1.529192946910000e-1 1.555344472120000e-1 1.581943021160000e-1
1.608996235270000e-1 1.636511886320000e-1 1.664497879020000e-1 1.692962253220000e-1
1.721913186160000e-1 1.751358994900000e-1 1.781308138640000e-1 1.811769221200000e-1
1.842750993450000e-1 1.874262355860000e-1 1.906312361030000e-1 1.938910216310000e-1
1.972065286440000e-1 2.005787096210000e-1 2.040085333270000e-1 2.074969850810000e-1
2.110450670500000e-1 2.146537985290000e-1 2.183242162350000e-1 2.220573746100000e-1
2.258543461170000e-1 2.297162215530000e-1 2.336441103600000e-1 2.376391409440000e-1
2.417024610010000e-1 2.458352378430000e-1 2.500386587380000e-1 2.543139312460000e-1
2.586622835710000e-1 2.630849649110000e-1 2.675832458160000e-1 2.721584185540000e-1
2.768117974860000e-1 2.815447194370000e-1 2.863585440820000e-1 2.912546543420000e-1
2.962344567740000e-1 3.012993819780000e-1 3.064508850100000e-1 3.116904457970000e-1
3.170195695630000e-1 3.224397872620000e-1 3.279526560180000e-1 3.335597595720000e-1
3.392627087360000e-1 3.450631418570000e-1 3.509627252870000e-1 3.569631538620000e-1
3.630661513890000e-1 3.692734711420000e-1 3.755868963620000e-1 3.820082407760000e-1
3.885393491110000e-1 3.951820976270000e-1 4.019383946590000e-1 4.088101811600000e-1
4.157994312600001e-1 4.229081528370000e-1 4.301383880880000e-1 4.374922141200000e-1
4.449717435450000e-1 4.525791250870000e-1 4.603165441990000e-1 4.681862236930000e-1
4.761904243740000e-1 4.843314456950000e-1 4.926116264150000e-1 5.010333452670000e-1
5.095990216500001e-1 5.183111163170000e-1 5.271721320829999e-1 5.361846145459999e-1
5.453511528200000e-1 5.546743802730000e-1 5.641569752870001e-1 5.738016620290000e-1
5.836112112300000e-1 5.935884409850000e-1 6.037362175580000e-1 6.140574562099999e-1
6.245551220310000e-1 6.352322307990001e-1 6.460918498410000e-1 6.571370989140000e-1
6.683711511050000e-1 6.797972337390000e-1 6.914186293109999e-1 7.032386764200000e-1
7.152607707380000e-1 7.274883659810000e-1 7.399249748990000e-1 7.525741702910000e-1
7.654395860239999e-1 7.785249180829999e-1 7.918339256330000e-1 8.053704320920000e-1
8.191383262370000e-1 8.331415633180001e-1 8.473841661940000e-1 8.618702264880000e-1
8.766039057670000e-1 8.915894367300000e-1 9.068311244309999e-1 9.223333475120000e-1
9.381005594619999e-1 9.541372898940001e-1 9.704481458529999e-1 9.870378131300001e-1
1.003911057620000e0 1.021072726670000e0 1.038527750500000e0 1.056281143610000e0
1.074338006190000e0 1.092703525640000e0 1.111382978020000e0 1.130381729560000e0
1.149705238240000e0 1.169359055340000e0 1.189348827020000e0 1.209680295940000e0
1.230359302940000e0 1.251391788720000e0 1.272783795480000e0 1.294541468740000e0
1.316671059070000e0 1.339178923850000e0 1.362071529170000e0 1.385355451630000e0
1.409037380250000e0 1.433124118390000e0 1.457622585700000e0 1.482539820120000e0
1.507882979890000e0 1.533659345600000e0 1.559876322310000e0 1.586541441650000e0
1.613662363990000e0 1.641246880650000e0 1.669302916120000e0 1.697838530370000e0
1.726861921110000e0 1.756381426220000e0 1.786405526060000e0 1.816942845990000e0
1.848002158790000e0 1.879592387190000e0 1.911722606460000e0 1.944402046990000e0
1.977640096940000e0 2.011446304970000e0 2.045830382950000e0 2.080802208750000e0
2.116371829110000e0 2.152549462480000e0 2.189345502010000e0 2.226770518480000e0
2.264835263380000e0 2.303550671970000e0 2.342927866430000e0 2.382978159080000e0
2.423713055590000e0 2.465144258300000e0 2.507283669610000e0 2.550143395330000e0
2.593735748260000e0 2.638073251610000e0 2.683168642710000e0 2.729034876590000e0
2.775685129720000e0 2.823132803820000e0 2.871391529700000e0 2.920475171140000e0
2.970397828930000e0 3.021173844880000e0 3.072817805960000e0 3.125344548490000e0
3.178769162360000e0 3.233106995450000e0 3.288373657970000e0 3.344585026950000e0
3.401757250830000e0 3.459906754090000e0 3.519050241950000e0 3.579204705200000e0
3.640387425040000e0 3.702615978090000e0 3.765908241410000e0 3.830282397640000e0
3.895756940230000e0 3.962350678740000e0 4.030082744280000e0 4.098972594950000e0
4.169040021480000e0 4.240305152870000e0 4.312788462220000e0 4.386510772590000e0
4.461493262970000e0 4.537757474380000e0 4.615325316040000e0 4.694219071700000e0
4.774461406010000e0 4.856075371040000e0 4.939084412900000e0 5.023512378480000e0
5.109383522300000e0 5.196722513480000e0 5.285554442830000e0 5.375904830030000e0
5.467799631010000e0 5.561265245360000e0 5.656328523950000e0 5.753016776610000e0
5.851357780010000e0 5.951379785620000e0 6.053111527830000e0 6.156582232180000e0
6.261821623830000e0 6.368859936000000e0 6.477727918730000e0 6.588456847690000e0
6.701078533160000e0 6.815625329160000e0 6.932130142780000e0 7.050626443590000e0
7.171148273290000e0 7.293730255460000e0 7.418407605540000e0 7.545216140920000e0
7.674192291240000e0 7.805373108850000e0 7.938796279450000e0 8.074500132950000e0
8.212523654440000e0 8.352906495399999e0 8.495688985099999e0 8.640912142199999e0
8.788617686489999e0 8.938848050920001e0 9.091646393770001e0 9.247056611040000e0
9.405123349080000e0 9.565892017410000e0 9.729408801749999e0 9.895720677320000e0
1.006487542230000e1 1.023692163160000e1 1.041190873070000e1 1.058988699000000e1
1.077090753930000e1 1.095502238220000e1 1.114228441150000e1 1.133274742380000e1
1.152646613540000e1 1.172349619810000e1 1.192389421480000e1 1.212771775580000e1
1.233502537580000e1 1.254587663030000e1 1.276033209270000e1 1.297845337190000e1
1.320030313000000e1 1.342594510010000e1 1.365544410470000e1 1.388886607460000e1
1.412627806720000e1 1.436774828660000e1 1.461334610230000e1 1.486314206990000e1
1.511720795100000e1 1.537561673370000e1 1.563844265400000e1 1.590576121650000e1
1.617764921680000e1 1.645418476300000e1 1.673544729840000e1 1.702151762440000e1
1.731247792330000e1 1.760841178250000e1 1.790940421790000e1 1.821554169900000e1
1.852691217310000e1 1.884360509090000e1 1.916571143210000e1 1.949332373170000e1
1.982653610640000e1 2.016544428150000e1 2.051014561900000e1 2.086073914470000e1
2.121732557740000e1 2.158000735760000e1 2.194888867660000e1 2.232407550690000e1
2.270567563250000e1 2.309379867970000e1 2.348855614870000e1 2.389006144570000e1
2.429842991550000e1 2.471377887420000e1 2.513622764380000e1 2.556589758550000e1
2.600291213520000e1 2.644739683870000e1 2.689947938790000e1 2.735928965740000e1
2.782695974170000e1 2.830262399340000e1 2.878641906160000e1 2.927848393140000e1
2.977895996330000e1 3.028799093460000e1 3.080572307980000e1 3.133230513360000e1
3.186788837270000e1 3.241262665970000e1 3.296667648760000e1 3.353019702400001e1
3.410335015750000e1 3.468630054400000e1 3.527921565370000e1 3.588226581970000e1
3.649562428670000e1 3.711946726070000e1 3.775397395970000e1 3.839932666520000e1
3.905571077450000e1 3.972331485410001e1 4.040233069370000e1 4.109295336150001e1
4.179538125990000e1 4.250981618290001e1 4.323646337390000e1 4.397553158450000e1
4.472723313470000e1 4.549178397380000e1 4.626940374240000e1 4.706031583580000e1
4.786474746760000e1 4.868292973550000e1 4.951509768730000e1 5.036149038890001e1
5.122235099260000e1 5.209792680680000e1 5.298846936750000e1 5.389423451050000e1
5.481548244460001e1 5.575247782630001e1 5.670548983650001e1 5.767479225680001e1
5.866066354940000e1 5.966338693570000e1 6.068325047890000e1 6.172054716610000e1
6.277557499250000e1 6.384863704710000e1 6.494004160000000e1 6.605010219050000e1
6.717913771770000e1 6.832747253140001e1 6.949543652620000e1 7.068336523540001e1
7.189159992810001e1 7.312048770650001e1 7.437038160650001e1 7.564164069840000e1
7.693463019020000e1 7.824972153290000e1 7.958729252670000e1
</PP_R>
<PP_RAB>
1.200364250200000e-6 1.220882801810000e-6 1.241752089430000e-6 1.262978108390000e-6
1.284566956530000e-6 1.306524835890000e-6 1.328858054560000e-6 1.351573028430000e-6
1.374676283070000e-6 1.398174455620000e-6 1.422074296620000e-6 1.446382672060000e-6
1.471106565250000e-6 1.496253078880000e-6 1.521829437070000e-6 1.547842987410000e-6
1.574301203090000e-6 1.601211685040000e-6 1.628582164130000e-6 1.656420503350000e-6
1.684734700130000e-6 1.713532888590000e-6 1.742823341900000e-6 1.772614474620000e-6
1.802914845180000e-6 1.833733158280000e-6 1.865078267440000e-6 1.896959177490000e-6
1.929385047210000e-6 1.962365191920000e-6 1.995909086170000e-6 2.030026366480000e-6
2.064726834080000e-6 2.100020457750000e-6 2.135917376660000e-6 2.172427903300000e-6
2.209562526430000e-6 2.247331914130001e-6 2.285746916790000e-6 2.324818570320000e-6
2.364558099230000e-6 2.404976919919999e-6 2.446086643950000e-6 2.487899081340000e-6
2.530426243990000e-6 2.573680349130000e-6 2.617673822840000e-6 2.662419303580000e-6
2.707929645860000e-6 2.754217923940000e-6 2.801297435520000e-6 2.849181705650000e-6
2.897884490559999e-6 2.947419781590000e-6 2.997801809300000e-6 3.049045047459999e-6
3.101164217260000e-6 3.154174291520000e-6 3.208090499030001e-6 3.262928328850001e-6
3.318703534850000e-6 3.375432140150000e-6 3.433130441790000e-6 3.491815015370000e-6
3.551502719830000e-6 3.612210702300000e-6 3.673956403010000e-6 3.736757560290000e-6
3.800632215710000e-6 3.865598719230001e-6 3.931675734450000e-6 3.998882244030000e-6
4.067237555100000e-6 4.136761304810000e-6 4.207473466000000e-6 4.279394352890001e-6
4.352544626970000e-6 4.426945302899999e-6 4.502617754550000e-6 4.579583721150000e-6
4.657865313530001e-6 4.737485020490001e-6 4.818465715219999e-6 4.900830661900001e-6
4.984603522400000e-6 5.069808363039999e-6 5.156469661510000e-6 5.244612313929999e-6
5.334261641990000e-6 5.425443400190000e-6 5.518183783290000e-6 5.612509433819999e-6
5.708447449690000e-6 5.806025392060000e-6 5.905271293170000e-6 6.006213664450000e-6
6.108881504690001e-6 6.213304308370001e-6 6.319512074150001e-6 6.427535313460000e-6
6.537405059290000e-6 6.649152875090001e-6 6.762810863840000e-6 6.878411677290002e-6
6.995988525310000e-6 7.115575185450000e-6 7.237206012650001e-6 7.360915949100001e-6
7.486740534250000e-6 7.614715915090001e-6 7.744878856460000e-6 7.877266751650001e-6
8.011917633149999e-6 8.148870183550001e-6 8.288163746660000e-6 8.429838338840002e-6
8.573934660440001e-6 8.720494107560000e-6 8.869558783890001e-6 9.021171512820001e-6
9.175375849770001e-6 9.332216094640000e-6 9.491737304609998e-6 9.653985307040001e-6
9.819006712630001e-6 9.986848928839999e-6 1.015756017350000e-5 1.033118948860000e-5
1.050778675460000e-5 1.068740270440000e-5 1.087008893810000e-5 1.105589793810000e-5
1.124488308350000e-5 1.143709866630000e-5 1.163259990630000e-5 1.183144296710000e-5
1.203368497250000e-5 1.223938402270000e-5 1.244859921110000e-5 1.266139064120000e-5
1.287781944380000e-5 1.309794779470000e-5 1.332183893260000e-5 1.354955717700000e-5
1.378116794700000e-5 1.401673777990000e-5 1.425633435030000e-5 1.450002648970000e-5
1.474788420610000e-5 1.499997870420000e-5 1.525638240600000e-5 1.551716897119999e-5
1.578241331880000e-5 1.605219164830000e-5 1.632658146190000e-5 1.660566158640000e-5
1.688951219610000e-5 1.717821483590000e-5 1.747185244440000e-5 1.777050937800000e-5
1.807427143500000e-5 1.838322588050000e-5 1.869746147100000e-5 1.901706848050000e-5
1.934213872560000e-5 1.967276559300000e-5 2.000904406520000e-5 2.035107074860000e-5
2.069894390090000e-5 2.105276345910000e-5 2.141263106890000e-5 2.177865011330000e-5
2.215092574240000e-5 2.252956490380000e-5 2.291467637330000e-5 2.330637078590000e-5
2.370476066780000e-5 2.410996046870000e-5 2.452208659470001e-5 2.494125744170001e-5
2.536759342930000e-5 2.580121703560000e-5 2.624225283230000e-5 2.669082752040000e-5
2.714706996679999e-5 2.761111124110000e-5 2.808308465330000e-5 2.856312579230000e-5
2.905137256470000e-5 2.954796523420000e-5 3.005304646230000e-5 3.056676134910000e-5
3.108925747500000e-5 3.162068494300000e-5 3.216119642180000e-5 3.271094719000000e-5
3.327009518040000e-5 3.383880102530000e-5 3.441722810300001e-5 3.500554258420001e-5
3.560391348050000e-5 3.621251269210000e-5 3.683151505790000e-5 3.746109840530000e-5
3.810144360130000e-5 3.875273460480000e-5 3.941515851900000e-5 4.008890564560000e-5
4.077416953900000e-5 4.147114706220000e-5 4.218003844360000e-5 4.290104733369999e-5
4.363438086460000e-5 4.438024970880000e-5 4.513886813990001e-5 4.591045409430000e-5
4.669522923380000e-5 4.749341900900000e-5 4.830525272449999e-5 4.913096360440000e-5
4.997078885940000e-5 5.082496975500001e-5 5.169375168100000e-5 5.257738422150000e-5
5.347612122700001e-5 5.439022088740000e-5 5.531994580570000e-5 5.626556307400000e-5
5.722734434980000e-5 5.820556593420000e-5 5.920050885130000e-5 6.021245892910000e-5
6.124170688120000e-5 6.228854839060000e-5 6.335328419459998e-5 6.443622017120001e-5
6.553766742690000e-5 6.665794238629998e-5 6.779736688269999e-5 6.895626825059999e-5
7.013497942010000e-5 7.133383901190000e-5 7.255319143540001e-5 7.379338698670001e-5
7.505478195019998e-5 7.633773870020000e-5 7.764262580530001e-5 7.896981813429999e-5
8.031969696399999e-5 8.169265008829999e-5 8.308907193020000e-5 8.450936365460000e-5
8.595393328389999e-5 8.742319581489999e-5 8.891757333840001e-5 9.043749515999998e-5
9.198339792400001e-5 9.355572573819998e-5 9.515493030209999e-5 9.678147103610000e-5
9.843581521390002e-5 1.001184380970000e-4 1.018298230690000e-4 1.035704617800000e-4
1.053408542790000e-4 1.071415091680000e-4 1.089729437390000e-4 1.108356841280000e-4
1.127302654650000e-4 1.146572320250000e-4 1.166171373890000e-4 1.186105446000000e-4
1.206380263260000e-4 1.227001650220000e-4 1.247975531010000e-4 1.269307931020000e-4
1.291004978640000e-4 1.313072907000000e-4 1.335518055810000e-4 1.358346873100000e-4
1.381565917170000e-4 1.405181858390000e-4 1.429201481170000e-4 1.453631685880000e-4
1.478479490840000e-4 1.503752034350000e-4 1.529456576720000e-4 1.555600502370000e-4
1.582191321940000e-4 1.609236674460000e-4 1.636744329540000e-4 1.664722189590000e-4
1.693178292110000e-4 1.722120811990000e-4 1.751558063860000e-4 1.781498504460000e-4
1.811950735110000e-4 1.842923504150000e-4 1.874425709440000e-4 1.906466400970000e-4
1.939054783400000e-4 1.972200218750000e-4 2.005912229070001e-4 2.040200499140000e-4
2.075074879340000e-4 2.110545388400000e-4 2.146622216310000e-4 2.183315727250000e-4
2.220636462540000e-4 2.258595143710000e-4 2.297202675570000e-4 2.336470149300000e-4
2.376408845690000e-4 2.417030238360000e-4 2.458345997050000e-4 2.500367990970001e-4
2.543108292220000e-4 2.586579179280000e-4 2.630793140490000e-4 2.675762877650000e-4
2.721501309720000e-4 2.768021576440000e-4 2.815337042200000e-4 2.863461299820000e-4
2.912408174449999e-4 2.962191727600000e-4 3.012826261110000e-4 3.064326321300000e-4
3.116706703150001e-4 3.169982454520000e-4 3.224168880510000e-4 3.279281547830000e-4
3.335336289280000e-4 3.392349208300000e-4 3.450336683610000e-4 3.509315373880000e-4
3.569302222550000e-4 3.630314462670001e-4 3.692369621900000e-4 3.755485527459999e-4
3.819680311350000e-4 3.884972415470000e-4 3.951380596999999e-4 4.018923933700000e-4
4.087621829480000e-4 4.157494019920000e-4 4.228560577930001e-4 4.300841919580001e-4
4.374358809879999e-4 4.449132368820000e-4 4.525184077390000e-4 4.602535783790001e-4
4.681209709650000e-4 4.761228456480000e-4 4.842615012110000e-4 4.925392757319999e-4
5.009585472560001e-4 5.095217344770000e-4 5.182312974320000e-4 5.270897382110000e-4
5.360996016720000e-4 5.452634761750000e-4 5.545839943230000e-4 5.640638337210000e-4
5.737057177439999e-4 5.835124163170001e-4 5.934867467160000e-4 6.036315743730000e-4
6.139498137000000e-4 6.244444289290000e-4 6.351184349579999e-4 6.459748982240000e-4
6.570169375779999e-4 6.682477251840001e-4 6.796704874310000e-4 6.912885058559999e-4
7.031051180920000e-4 7.151237188230000e-4 7.273477607589999e-4 7.397807556329999e-4
7.524262752029999e-4 7.652879522809998e-4 7.783694817790000e-4 7.916746217670001e-4
8.052071945540000e-4 8.189710877870001e-4 8.329702555660001e-4 8.472087195799999e-4
8.616905702650001e-4 8.764199679770002e-4 8.914011441860001e-4 9.066384026940000e-4
9.221361208710000e-4 9.378987509120000e-4 9.539308211149999e-4 9.702369371829999e-4
9.868217835479999e-4 1.003690124720000e-3 1.020846806630000e-3 1.038296758090000e-3
1.056044992100000e-3 1.074096607410000e-3 1.092456789890000e-3 1.111130814070000e-3
1.130124044630000e-3 1.149441937950000e-3 1.169090043710000e-3 1.189074006410000e-3
1.209399567060000e-3 1.230072564800000e-3 1.251098938590000e-3 1.272484728900000e-3
1.294236079440000e-3 1.316359238960000e-3 1.338860563020000e-3 1.361746515820000e-3
1.385023672030000e-3 1.408698718750000e-3 1.432778457350000e-3 1.457269805470000e-3
1.482179799010000e-3 1.507515594120000e-3 1.533284469300000e-3 1.559493827430000e-3
1.586151197950000e-3 1.613264239030000e-3 1.640840739700000e-3 1.668888622170000e-3
1.697415944040000e-3 1.726430900670000e-3 1.755941827480000e-3 1.785957202410000e-3
1.816485648280000e-3 1.847535935320000e-3 1.879116983690000e-3 1.911237866010000e-3
1.943907809980000e-3 1.977136201040000e-3 2.010932585080000e-3 2.045306671140000e-3
2.080268334220000e-3 2.115827618150000e-3 2.151994738400000e-3 2.188780085100000e-3
2.226194225970000e-3 2.264247909350000e-3 2.302952067350001e-3 2.342317818910000e-3
2.382356473050000e-3 2.423079532110000e-3 2.464498695030000e-3 2.506625860730000e-3
2.549473131540000e-3 2.593052816640000e-3 2.637377435640000e-3 2.682459722150000e-3
2.728312627420000e-3 2.774949324110000e-3 2.822383210049999e-3 2.870627912070000e-3
2.919697289940000e-3 2.969605440350000e-3 3.020366700930000e-3 3.071995654410000e-3
3.124507132810000e-3 3.177916221640000e-3 3.232238264300000e-3 3.287488866479999e-3
3.343683900590000e-3 3.400839510380000e-3 3.458972115550000e-3 3.518098416470000e-3
3.578235399000000e-3 3.639400339310000e-3 3.701610808910000e-3 3.764884679670000e-3
3.829240128950000e-3 3.894695644810000e-3 3.961270031370000e-3 4.028982414160000e-3
4.097852245620000e-3 4.167899310739999e-3 4.239143732680001e-3 4.311605978590000e-3
4.385306865460000e-3 4.460267566130000e-3 4.536509615360000e-3 4.614054916020000e-3
4.692925745369999e-3 4.773144761480000e-3 4.854735009710000e-3 4.937719929370000e-3
5.022123360410000e-3 5.107969550310000e-3 5.195283161030000e-3 5.284089276060000e-3
5.374413407680000e-3 5.466281504279999e-3 5.559719957780000e-3 5.654755611240000e-3
5.751415766559999e-3 5.849728192340001e-3 5.949721131820001e-3 6.051423311060001e-3
6.154863947119999e-3 6.260072756480000e-3 6.367079963610001e-3 6.475916309600000e-3
6.586613061040001e-3 6.699202018950000e-3 6.813715527970000e-3 6.930186485610000e-3
7.048648351710001e-3 7.169135158100000e-3 7.291681518280000e-3 7.416322637469999e-3
7.543094322639999e-3 7.672032992840000e-3 7.803175689660000e-3 7.936560087849999e-3
8.072224506180001e-3 8.210207918409999e-3 8.350549964499999e-3 8.493290962000000e-3
8.638471917640000e-3 8.786134539110002e-3 8.936321247010000e-3 9.089075187070000e-3
9.244440242560000e-3 9.402461046839999e-3 9.563182996229999e-3 9.726652263040002e-3
9.892915808829999e-3 1.006202139790000e-2 1.023401761100000e-2 1.040895385930000e-2
1.058688039870000e-2 1.076784834390000e-2 1.095190968360000e-2 1.113911729500000e-2
1.132952495920000e-2 1.152318737680000e-2 1.172016018310000e-2 1.192049996460000e-2
1.212426427510000e-2 1.233151165210000e-2 1.254230163370000e-2 1.275669477600000e-2
1.297475266970000e-2 1.319653795890000e-2 1.342211435800000e-2 1.365154667090000e-2