<UPF version="2.0.1">
<PP_INFO>
Generated by new atomic code, or converted to UPF format
Author:
Generation date:
Pseudopotential type: US
Element: Cl
Functional:  SLA  PW   PBE  PBE
Suggested minimum cutoff for wavefunctions:   0. Ry
Suggested minimum cutoff for charge density:   0. Ry
The Pseudo was generated with a Non-Relativistic Calculation
L component and cutoff radius for Local Potential:  0   0.0000
Valence configuration:
nl pn  l   occ       Rcut    Rcut US       E pseu
3S  0  0  2.00     10.000      1.500     0.000000
3P  0  1  5.00     10.000      1.500     0.000000
Generation configuration: not available.
</PP_INFO>
<!--
END OF HUMAN READABLE SECTION
-->
<PP_HEADER generated="Generated by new atomic code, or converted to UPF format" author="" date="" comment="" element="Cl" pseudo_type="US" relativistic="no" is_ultrasoft="true" is_paw="false" is_coulomb="false" has_so="false" has_wfc="false" has_gipaw="false" paw_as_gipaw="false" core_correction="true" functional=" SLA  PW   PBE  PBE" z_valence="7.000000000000e0" total_psenergy="-3.188004128905e1" wfc_cutoff="0.000000000000e0" rho_cutoff="0.000000000000e0" l_max="1" l_max_rho="0" l_local="0" mesh_size="909" number_of_wfc="2" number_of_proj="4"/>
<PP_MESH mesh="909" rmax="2.003607960460e2" zmesh="1.700000000000e1">
<PP_R>
0.000000000000000e0 9.014935050809999e-7 1.818137807850000e-6 2.750187537620000e-6
3.697901603080000e-6 4.661543264239999e-6 5.641380205530000e-6 6.637684610180000e-6
7.650733235820000e-6 8.680807491360000e-6 9.728193515159999e-6 1.079318225450000e-5
1.187606954650000e-5 1.297715620010000e-5 1.409674807970000e-5 1.523515619040000e-5
1.639269676390000e-5 1.756969134670000e-5 1.876646688940000e-5 1.998335583720000e-5
2.122069622270000e-5 2.247883175950000e-5 2.375811193780000e-5 2.505889212150000e-5
2.638153364670000e-5 2.772640392230000e-5 2.909387653210000e-5 3.048433133840001e-5
3.189815458760000e-5 3.333573901740001e-5 3.479748396610000e-5 3.628379548330000e-5
3.779508644290000e-5 3.933177665769999e-5 4.089429299600000e-5 4.248306950010000e-5
4.409854750699999e-5 4.574117577110001e-5 4.741141058839999e-5 4.910971592389998e-5
5.083656354000001e-5 5.259243312760001e-5 5.437781243970000e-5 5.619319742630000e-5
5.803909237280001e-5 5.991601003960000e-5 6.182447180480001e-5 6.376500780899999e-5
6.573815710240001e-5 6.774446779479999e-5 6.978449720740000e-5 7.185881202839999e-5
7.396798846959999e-5 7.611261242689999e-5 7.829327964299999e-5 8.051059587280001e-5
8.276517705170001e-5 8.505764946679999e-5 8.738864993070001e-5 8.975882595849999e-5
9.216883594780001e-5 9.461934936110000e-5 9.711104691250000e-5 9.964462075610001e-5
1.022207746790000e-4 1.048402242960000e-4 1.075036972480000e-4 1.102119334070000e-4
1.129656850770000e-4 1.157657172080000e-4 1.186128076040000e-4 1.215077471410000e-4
1.244513399890000e-4 1.274444038310000e-4 1.304877700930000e-4 1.335822841740000e-4
1.367288056800000e-4 1.399282086670000e-4 1.431813818770000e-4 1.464892289920000e-4
1.498526688770000e-4 1.532726358450000e-4 1.567500799070000e-4 1.602859670430000e-4
1.638812794660000e-4 1.675370158980000e-4 1.712541918440000e-4 1.750338398780000e-4
1.788770099250000e-4 1.827847695570000e-4 1.867582042890000e-4 1.907984178780000e-4
1.949065326310000e-4 1.990836897180000e-4 2.033310494870000e-4 2.076497917870000e-4
2.120411162980000e-4 2.165062428590000e-4 2.210464118120000e-4 2.256628843450001e-4
2.303569428400000e-4 2.351298912329999e-4 2.399830553740000e-4 2.449177833950000e-4
2.499354460850000e-4 2.550374372720000e-4 2.602251742090000e-4 2.655000979670000e-4
2.708636738360000e-4 2.763173917330000e-4 2.818627666150000e-4 2.875013388990000e-4
2.932346748920000e-4 2.990643672240001e-4 3.049920352920000e-4 3.110193257070000e-4
3.171479127570001e-4 3.233794988650000e-4 3.297158150680000e-4 3.361586214950001e-4
3.427097078550000e-4 3.493708939370000e-4 3.561440301130001e-4 3.630309978530000e-4
3.700337102480000e-4 3.771541125420000e-4 3.843941826690001e-4 3.917559318060000e-4
3.992414049320000e-4 4.068526813920000e-4 4.145918754799999e-4 4.224611370190000e-4
4.304626519689999e-4 4.385986430220000e-4 4.468713702280000e-4 4.552831316220001e-4
4.638362638560000e-4 4.725331428570000e-4 4.813761844790000e-4 4.903678451800000e-4
4.995106227020000e-4 5.088070567639999e-4 5.182597297680001e-4 5.278712675170000e-4
5.376443399460000e-4 5.475816618580001e-4 5.576859936859999e-4 5.679601422529999e-4
5.784069615549999e-4 5.890293535540000e-4 5.998302689820000e-4 6.108127081630000e-4
6.219797218450001e-4 6.333344120490001e-4 6.448799329280000e-4 6.566194916460000e-4
6.685563492660000e-4 6.806938216580000e-4 6.930352804219999e-4 7.055841538190000e-4
7.183439277290001e-4 7.313181466140001e-4 7.445104145090000e-4 7.579243960160000e-4
7.715638173279999e-4 7.854324672610000e-4 7.995341983070001e-4 8.138729277039999e-4
8.284526385250000e-4 8.432773807819999e-4 8.583512725560000e-4 8.736785011350001e-4
8.892633241820000e-4 9.051100709129999e-4 9.212231433059998e-4 9.376070173170000e-4
9.542662441279999e-4 9.712054514080000e-4 9.884293446030000e-4 1.005942708240000e-3
1.023750407250000e-3 1.041857388330000e-3 1.060268681320000e-3 1.078989400580000e-3
1.098024746430000e-3 1.117380006600000e-3 1.137060557660000e-3 1.157071866570000e-3
1.177419492140000e-3 1.198109086640000e-3 1.219146397290000e-3 1.240537267940000e-3
1.262287640620000e-3 1.284403557260000e-3 1.306891161300000e-3 1.329756699440000e-3
1.353006523370000e-3 1.376647091520000e-3 1.400684970870000e-3 1.425126838760000e-3
1.449979484760000e-3 1.475249812540000e-3 1.500944841800000e-3 1.527071710210000e-3
1.553637675400000e-3 1.580650116970000e-3 1.608116538570000e-3 1.636044569920000e-3
1.664441969000000e-3 1.693316624140000e-3 1.722676556280000e-3 1.752529921140000e-3
1.782885011510000e-3 1.813750259560000e-3 1.845134239170000e-3 1.877045668300000e-3
1.909493411460000e-3 1.942486482110000e-3 1.976034045200000e-3 2.010145419720000e-3
2.044830081280000e-3 2.080097664710000e-3 2.115957966810000e-3 2.152420948980000e-3
2.189496740090000e-3 2.227195639190000e-3 2.265528118440000e-3 2.304504826000000e-3
2.344136588990000e-3 2.384434416480000e-3 2.425409502570000e-3 2.467073229500000e-3
2.509437170790000e-3 2.552513094470000e-3 2.596312966350000e-3 2.640848953360000e-3
2.686133426870000e-3 2.732178966210000e-3 2.778998362100000e-3 2.826604620220000e-3
2.875010964840000e-3 2.924230842490000e-3 2.974277925660001e-3 3.025166116639999e-3
3.076909551370000e-3 3.129522603370000e-3 3.183019887700000e-3 3.237416265060000e-3
3.292726845910000e-3 3.348966994660000e-3 3.406152333930001e-3 3.464298748910000e-3
3.523422391740000e-3 3.583539686060000e-3 3.644667331480000e-3 3.706822308300000e-3
3.770021882200000e-3 3.834283609030000e-3 3.899625339660000e-3 3.966065224999999e-3
4.033621721010000e-3 4.102313593820000e-3 4.172159924930000e-3 4.243180116550000e-3
4.315393896990000e-3 4.388821326070000e-3 4.463482800790000e-3 4.539399060920001e-3
4.616591194800000e-3 4.695080645180000e-3 4.774889215200001e-3 4.856039074410000e-3
4.938552764970000e-3 5.022453207870001e-3 5.107763709340000e-3 5.194507967280000e-3
5.282710077870000e-3 5.372394542280000e-3 5.463586273430000e-3 5.556310602940000e-3
5.650593288170001e-3 5.746460519349999e-3 5.843938926900001e-3 5.943055588760000e-3
6.043838038000001e-3 6.146314270370000e-3 6.250512752159999e-3 6.356462428060000e-3
6.464192729220000e-3 6.573733581419999e-3 6.685115413360000e-3 6.798369165170000e-3
6.913526296960000e-3 7.030618797540001e-3 7.149679193380000e-3 7.270740557560000e-3
7.393836519030001e-3 7.519001271900000e-3 7.646269584950000e-3 7.775676811320000e-3
7.907258898300001e-3 8.041052397300000e-3 8.177094474039999e-3 8.315422918880000e-3
8.456076157260000e-3 8.599093260440000e-3 8.744513956300001e-3 8.892378640420000e-3
9.042728387279999e-3 9.195604961650000e-3 9.351050830240000e-3 9.509109173460001e-3
9.669823897410000e-3 9.833239646119999e-3 9.999401813879999e-3 1.016835655790000e-2
1.034015081120000e-2 1.051483229550000e-2 1.069244953450000e-2 1.087305186760000e-2
1.105668946310000e-2 1.124341333270000e-2 1.143327534530000e-2 1.162632824170000e-2
1.182262564880000e-2 1.202222209500000e-2 1.222517302500000e-2 1.243153481540000e-2
1.264136479020000e-2 1.285472123690000e-2 1.307166342250000e-2 1.329225161020000e-2
1.351654707580000e-2 1.374461212520000e-2 1.397651011110000e-2 1.421230545120000e-2
1.445206364570000e-2 1.469585129550000e-2 1.494373612120000e-2 1.519578698120000e-2
1.545207389120000e-2 1.571266804370000e-2 1.597764182760000e-2 1.624706884840000e-2
1.652102394880000e-2 1.679958322910000e-2 1.708282406870000e-2 1.737082514740000e-2
1.766366646740000e-2 1.796142937540000e-2 1.826419658520000e-2 1.857205220080000e-2
1.888508173950000e-2 1.920337215610000e-2 1.952701186660000e-2 1.985609077300000e-2
2.019070028820000e-2 2.053093336150000e-2 2.087688450420000e-2 2.122864981610000e-2
2.158632701210000e-2 2.195001544920000e-2 2.231981615430000e-2 2.269583185230000e-2
2.307816699430000e-2 2.346692778700000e-2 2.386222222210000e-2 2.426416010600000e-2
2.467285309080000e-2 2.508841470490000e-2 2.551096038480000e-2 2.594060750700000e-2
2.637747542070001e-2 2.682168548090000e-2 2.727336108210000e-2 2.773262769270000e-2
2.819961288970000e-2 2.867444639420000e-2 2.915726010740000e-2 2.964818814740000e-2
3.014736688630000e-2 3.065493498800000e-2 3.117103344690000e-2 3.169580562690000e-2
3.222939730170000e-2 3.277195669440000e-2 3.332363451950000e-2 3.388458402440000e-2
3.445496103200000e-2 3.503492398410000e-2 3.562463398509999e-2 3.622425484730000e-2
3.683395313570000e-2 3.745389821510000e-2 3.808426229620000e-2 3.872522048440000e-2
3.937695082769999e-2 4.003963436640000e-2 4.071345518360000e-2 4.139860045610000e-2
4.209526050640000e-2 4.280362885560000e-2 4.352390227740000e-2 4.425628085230001e-2
4.500096802350001e-2 4.575817065330000e-2 4.652809908070000e-2 4.731096717960000e-2
4.810699241840000e-2 4.891639592040001e-2 4.973940252500000e-2 5.057624085060000e-2
5.142714335750000e-2 5.229234641310000e-2 5.317209035710000e-2 5.406661956850000e-2
5.497618253330000e-2 5.590103191380001e-2 5.684142461860000e-2 5.779762187390000e-2
5.876988929610000e-2 5.975849696590000e-2 6.076371950280000e-2 6.178583614180000e-2
6.282513081070000e-2 6.388189220919999e-2 6.495641388880000e-2 6.604899433489999e-2
6.715993704879999e-2 6.828955063310000e-2 6.943814887650000e-2 7.060605084139999e-2
7.179358095260000e-2 7.300106908720000e-2 7.422885066640000e-2 7.547726674840000e-2
7.674666412350000e-2 7.803739541030000e-2 7.934981915360000e-2 8.068429992380000e-2
8.204120841890001e-2 8.342092156630001e-2 8.482382262880000e-2 8.625030130999999e-2
8.770075386329999e-2 8.917558320129999e-2 9.067519900850002e-2 9.220001785440001e-2
9.375046330960000e-2 9.532696606329999e-2 9.692996404320001e-2 9.855990253680000e-2
1.002172343150000e-1 1.019024197590000e-1 1.036159269860000e-1 1.053582319820000e-1
1.071298187310000e-1 1.089311793520000e-1 1.107628142350000e-1 1.126252321790000e-1
1.145189505350000e-1 1.164444953460000e-1 1.184024015000000e-1 1.203932128720000e-1
1.224174824770000e-1 1.244757726260000e-1 1.265686550800000e-1 1.286967112070000e-1
1.308605321490000e-1 1.330607189800000e-1 1.352978828780000e-1 1.375726452920000e-1
1.398856381140000e-1 1.422375038580000e-1 1.446288958350000e-1 1.470604783350000e-1
1.495329268140000e-1 1.520469280790000e-1 1.546031804800000e-1 1.572023941040000e-1
1.598452909700000e-1 1.625326052340000e-1 1.652650833900000e-1 1.680434844760000e-1
1.708685802890000e-1 1.737411555960000e-1 1.766620083520000e-1 1.796319499240000e-1
1.826518053160000e-1 1.857224133960000e-1 1.888446271290000e-1 1.920193138170000e-1
1.952473553390000e-1 1.985296483940000e-1 2.018671047500000e-1 2.052606515000000e-1
2.087112313180000e-1 2.122198027200000e-1 2.157873403330000e-1 2.194148351610000e-1
2.231032948660000e-1 2.268537440430000e-1 2.306672245080000e-1 2.345447955860000e-1
2.384875344050000e-1 2.424965361940000e-1 2.465729145930000e-1 2.507178019530000e-1
2.549323496600000e-1 2.592177284480000e-1 2.635751287280000e-1 2.680057609160000e-1
2.725108557730000e-1 2.770916647430000e-1 2.817494603010000e-1 2.864855363110000e-1
2.913012083780000e-1 2.961978142220000e-1 3.011767140410000e-1 3.062392908950000e-1
3.113869510880000e-1 3.166211245600000e-1 3.219432652800000e-1 3.273548516560000e-1
3.328573869400000e-1 3.384523996490000e-1 3.441414439910000e-1 3.499261002920000e-1
3.558079754380000e-1 3.617887033210000e-1 3.678699452920000e-1 3.740533906260000e-1
3.803407569840000e-1 3.867337908990000e-1 3.932342682540000e-1 3.998439947790000e-1
4.065648065510000e-1 4.133985705070000e-1 4.203471849580000e-1 4.274125801190000e-1
4.345967186450000e-1 4.419015961770000e-1 4.493292418939999e-1 4.568817190790000e-1
4.645611256910000e-1 4.723695949470000e-1 4.803092959180000e-1 4.883824341260000e-1
4.965912521620000e-1 5.049380303070000e-1 5.134250871620000e-1 5.220547802990000e-1
5.308295069100000e-1 5.397517044750000e-1 5.488238514410000e-1 5.580484679050000e-1
5.674281163220000e-1 5.769654022089999e-1 5.866629748730000e-1 5.965235281480000e-1
6.065498011390000e-1 6.167445789860000e-1 6.271106936380000e-1 6.376510246370000e-1
6.483684999219999e-1 6.592660966370000e-1 6.703468419630000e-1 6.816138139560000e-1
6.930701424030000e-1 7.047190096910000e-1 7.165636516900000e-1 7.286073586570000e-1
7.408534761420000e-1 7.533054059230000e-1 7.659666069510001e-1 7.788405963050000e-1
7.919309501790000e-1 8.052413048640000e-1 8.187753577680001e-1 8.325368684360001e-1
8.465296595989999e-1 8.607576182340001e-1 8.752246966420000e-1 8.899349135490001e-1
9.048923552220000e-1 9.201011766010000e-1 9.355656024580000e-1 9.512899285640000e-1
9.672785228900000e-1 9.835358268149999e-1 1.000066356360000e0 1.016874703450000e0
1.033965537170000e0 1.051343605090000e0 1.069013734560000e0 1.086980834060000e0
1.105249894580000e0 1.123825990960000e0 1.142714283350000e0 1.161920018630000e0
1.181448531840000e0 1.201305247690000e0 1.221495682070000e0 1.242025443560000e0
1.262900235010000e0 1.284125855100000e0 1.305708199970000e0 1.327653264860000e0
1.349967145760000e0 1.372656041120000e0 1.395726253540000e0 1.419184191580000e0
1.443036371480000e0 1.467289418990000e0 1.491950071230000e0 1.517025178540000e0
1.542521706390000e0 1.568446737310000e0 1.594807472860000e0 1.621611235650000e0
1.648865471330000e0 1.676577750690000e0 1.704755771780000e0 1.733407362010000e0
1.762540480320000e0 1.792163219440000e0 1.822283808110000e0 1.852910613340000e0
1.884052142780000e0 1.915717047050000e0 1.947914122160000e0 1.980652311950000e0
2.013940710580000e0 2.047788565040000e0 2.082205277720000e0 2.117200409040000e0
2.152783680100000e0 2.188964975370000e0 2.225754345450000e0 2.263162009830000e0
2.301198359780000e0 2.339873961190000e0 2.379199557540000e0 2.419186072850000e0
2.459844614750000e0 2.501186477540000e0 2.543223145330000e0 2.585966295250000e0
2.629427800670000e0 2.673619734510000e0 2.718554372580000e0 2.764244197040000e0
2.810701899770000e0 2.857940386010000e0 2.905972777860000e0 2.954812417950000e0
3.004472873170000e0 3.054967938400000e0 3.106311640390000e0 3.158518241590000e0
3.211602244190000e0 3.265578394070000e0 3.320461684950000e0 3.376267362560000e0
3.433010928820000e0 3.490708146200000e0 3.549375042080000e0 3.609027913200000e0
3.669683330170000e0 3.731358142130000e0 3.794069481350000e0 3.857834768050000e0
3.922671715230000e0 3.988598333570000e0 4.055632936440000e0 4.123794144980000e0
4.193100893320000e0 4.263572433770000e0 4.335228342210000e0 4.408088523530000e0
4.482173217120000e0 4.557503002550000e0 4.634098805240000e0 4.711981902290000e0
4.791173928410000e0 4.871696881880000e0 4.953573130720000e0 5.036825418840000e0
5.121476872420000e0 5.207551006290000e0 5.295071730500000e0 5.384063356920000e0
5.474550606010000e0 5.566558613700000e0 5.660112938370000e0 5.755239567930000e0
5.851964927060000e0 5.950315884520000e0 6.050319760670000e0 6.152004335010000e0
6.255397853890000e0 6.360529038420000e0 6.467427092360000e0 6.576121710320000e0
6.686643085940000e0 6.799021920310000e0 6.913289430500000e0 7.029477358220000e0
7.147617978630000e0 7.267744109350000e0 7.389889119510000e0 7.514086939060000e0
7.640372068210000e0 7.768779586950000e0 7.899345164880000e0 8.032105071049999e0
8.167096184060000e0 8.304356002320000e0 8.443922654440000e0 8.585834909820001e0
8.730132189450000e0 8.876854576830000e0 9.026042829140000e0 9.177738388500000e0
9.331983393550001e0 9.488820691110000e0 9.648293848110001e0 9.810447163679999e0
9.975325681450000e0 1.014297520210000e1 1.031344229590000e1 1.048677431600000e1
1.066301941140000e1 1.084222654000000e1 1.102444548280000e1 1.120972685750000e1
1.139812213210000e1 1.158968363990000e1 1.178446459370000e1 1.198251910060000e1
1.218390217690000e1 1.238866976380000e1 1.259687874240000e1 1.280858694990000e1
1.302385319540000e1 1.324273727660000e1 1.346529999600000e1 1.369160317800000e1
1.392170968600000e1 1.415568344000000e1 1.439358943430000e1 1.463549375520000e1
1.488146360010000e1 1.513156729550000e1 1.538587431620000e1 1.564445530480000e1
1.590738209080000e1 1.617472771130000e1 1.644656643060000e1 1.672297376130000e1
1.700402648490000e1 1.728980267340000e1 1.758038171090000e1 1.787584431570000e1
1.817627256270000e1 1.848174990610000e1 1.879236120260000e1 1.910819273520000e1
1.942933223690000e1 1.975586891520000e1 2.008789347670000e1 2.042549815280000e1
2.076877672450000e1 2.111782454930000e1 2.147273858730000e1 2.183361742770000e1
2.220056131730000e1 2.257367218700000e1 2.295305368130000e1 2.333881118630000e1
2.373105185950000e1 2.412988465890000e1 2.453542037420000e1 2.494777165660000e1
2.536705305100000e1 2.579338102700000e1 2.622687401180000e1 2.666765242290000e1
2.711583870170000e1 2.757155734710000e1 2.803493495060000e1 2.850610023120000e1
2.898518407130000e1 2.947231955260000e1 2.996764199370000e1 3.047128898740000e1
3.098340043890000e1 3.150411860470000e1 3.203358813200000e1 3.257195609910000e1
3.311937205610000e1 3.367598806660000e1 3.424195874960001e1 3.481744132290000e1
3.540259564650000e1 3.599758426690000e1 3.660257246270000e1 3.721772829000000e1
3.784322262940000e1 3.847922923330001e1 3.912592477430000e1 3.978348889420000e1
4.045210425390001e1 4.113195658430000e1 4.182323473760000e1 4.252613073990000e1
4.324083984470000e1 4.396756058680000e1 4.470649483780000e1 4.545784786200000e1
4.622182837330000e1 4.699864859350000e1 4.778852431090001e1 4.859167494070000e1
4.940832358520001e1 5.023869709670000e1 5.108302613980000e1 5.194154525570000e1
5.281449292760001e1 5.370211164640001e1 5.460464797860000e1 5.552235263470000e1
5.645548053840001e1 5.740429089790000e1 5.836904727780000e1 5.935001767220001e1
6.034747457910001e1 6.136169507640000e1 6.239296089840000e1 6.344155851450001e1
6.450777920860000e1 6.559191916000001e1 6.669427952550000e1 6.781516652360001e1
6.895489151890001e1 7.011377110900000e1 7.129212721240001e1 7.249028715780000e1
7.370858377499999e1 7.494735548770000e1 7.620694640710001e1 7.748770642770001e1
7.878999132430001e1 8.011416285110000e1 8.146058884209999e1 8.282964331310000e1
8.422170656590001e1 8.563716529360001e1 8.707641268840000e1 8.853984855040000e1
9.002787939900001e1 9.154091858559999e1 9.307938640870001e1 9.464371023030001e1
9.623432459490001e1 9.785167135010001e1 9.949619976910000e1 1.011683666760000e2
1.028686365730000e2 1.045974817670000e2 1.063553825040000e2 1.081428271030000e2
1.099603120850000e2 1.118083423210000e2 1.136874311640000e2 1.155981005940000e2
1.175408813660000e2 1.195163131540000e2 1.215249447010000e2 1.235673339730000e2
1.256440483140000e2 1.277556646030000e2 1.299027694120000e2 1.320859591740000e2
1.343058403450000e2 1.365630295720000e2 1.388581538670000e2 1.411918507800000e2
1.435647685730000e2 1.459775664070000e2 1.484309145190000e2 1.509254944090000e2
1.534619990330000e2 1.560411329920000e2 1.586636127290000e2 1.613301667260000e2
1.640415357110000e2 1.667984728580000e2 1.696017440030000e2 1.724521278480000e2
1.753504161860000e2 1.782974141150000e2 1.812939402650000e2 1.843408270240000e2
1.874389207680000e2 1.905890820990000e2 1.937921860820000e2 1.970491224900000e2
2.003607960460000e2
</PP_R>
<PP_RAB>
8.940019270140001e-7 9.090268187660000e-7 9.243042238120001e-7 9.398383859750002e-7
9.556336203990002e-7 9.716943147520000e-7 9.880249304400001e-7 1.004630003850000e-6
1.021514147610000e-6 1.038682051870000e-6 1.056138485600000e-6 1.073888297920000e-6
1.091936419460000e-6 1.110287863680000e-6 1.128947728340000e-6 1.147921196850000e-6
1.167213539750000e-6 1.186830116130000e-6 1.206776375170000e-6 1.227057857630000e-6
1.247680197390000e-6 1.268649123010000e-6 1.289970459310000e-6 1.311650129040000e-6
1.333694154460000e-6 1.356108659050000e-6 1.378899869220000e-6 1.402074115990000e-6
1.425637836810000e-6 1.449597577300000e-6 1.473959993120000e-6 1.498731851740000e-6
1.523920034400000e-6 1.549531537980000e-6 1.575573476950000e-6 1.602053085350000e-6
1.628977718800000e-6 1.656354856530000e-6 1.684192103490000e-6 1.712497192410000e-6
1.741277986010000e-6 1.770542479140000e-6 1.800298801010000e-6 1.830555217450000e-6
1.861320133230000e-6 1.892602094340000e-6 1.924409790430000e-6 1.956752057160000e-6
1.989637878720000e-6 2.023076390260000e-6 2.057076880470000e-6 2.091648794150000e-6
2.126801734840000e-6 2.162545467460000e-6 2.198889921060000e-6 2.235845191560000e-6
2.273421544540000e-6 2.311629418130000e-6 2.350479425860001e-6 2.389982359660000e-6
2.430149192810001e-6 2.470991083030000e-6 2.512519375559999e-6 2.554745606280000e-6
2.597681504990001e-6 2.641338998610000e-6 2.685730214480000e-6 2.730867483790000e-6
2.776763344970000e-6 2.823430547150000e-6 2.870882053740000e-6 2.919131046040000e-6
2.968190926840000e-6 3.018075324199999e-6 3.068798095230000e-6 3.120373329910000e-6
3.172815355020000e-6 3.226138738130000e-6 3.280358291640000e-6 3.335489076870000e-6
3.391546408300000e-6 3.448545857760000e-6 3.506503258790000e-6 3.565434711060000e-6
3.625356584790000e-6 3.686285525319999e-6 3.748238457760000e-6 3.811232591639999e-6
3.875285425760000e-6 3.940414752960000e-6 4.006638665160000e-6 4.073975558310000e-6
4.142444137520000e-6 4.212063422310000e-6 4.282852751789999e-6 4.354831790130000e-6
4.428020531970000e-6 4.502439307990000e-6 4.578108790540000e-6 4.655049999419999e-6
4.733284307680000e-6 4.812833447560000e-6 4.893719516579999e-6 4.975964983590001e-6
5.059592695100000e-6 5.144625881550001e-6 5.231088163830000e-6 5.319003559789999e-6
5.408396490940000e-6 5.499291789230000e-6 5.591714703930000e-6 5.685690908670001e-6
5.781246508550001e-6 5.878408047420001e-6 5.977202515209999e-6 6.077657355470000e-6
6.179800472960000e-6 6.283660241430001e-6 6.389265511480001e-6 6.496645618590000e-6
6.605830391260000e-6 6.716850159289999e-6 6.829735762220000e-6 6.944518557890000e-6
7.061230431149999e-6 7.179903802709999e-6 7.300571638160001e-6 7.423267457119999e-6
7.548025342550001e-6 7.674879950219998e-6 7.803866518340000e-6 7.935020877340000e-6
8.068379459820003e-6 8.203979310710000e-6 8.341858097480001e-6 8.482054120710000e-6
8.624606324609999e-6 8.769554307960002e-6 8.916938335000001e-6 9.066799346690001e-6
9.219178972049999e-6 9.374119539750001e-6 9.531664089810000e-6 9.691856385640001e-6
9.854740926110001e-6 1.002036295800000e-5 1.018876848840000e-5 1.036000429790000e-5
1.053411795290000e-5 1.071115781960000e-5 1.089117307670000e-5 1.107421372970000e-5
1.126033062440000e-5 1.144957546120000e-5 1.164200080920000e-5 1.183766012110000e-5
1.203660774810000e-5 1.223889895470000e-5 1.244458993400000e-5 1.265373782400000e-5
1.286640072250000e-5 1.308263770390000e-5 1.330250883550000e-5 1.352607519390000e-5
1.375339888250000e-5 1.398454304800000e-5 1.421957189880000e-5 1.445855072210000e-5
1.470154590240000e-5 1.494862494010000e-5 1.519985646960000e-5 1.545531027930000e-5
1.571505733000000e-5 1.597916977560000e-5 1.624772098210000e-5 1.652078554899999e-5
1.679843932910000e-5 1.708075945050000e-5 1.736782433710000e-5 1.765971373100000e-5
1.795650871440000e-5 1.825829173250000e-5 1.856514661560000e-5 1.887715860330000e-5
1.919441436760000e-5 1.951700203700000e-5 1.984501122140000e-5 2.017853303649999e-5
2.051766012940000e-5 2.086248670430000e-5 2.121310854850000e-5 2.156962305930000e-5
2.193212927080000e-5 2.230072788130000e-5 2.267552128200000e-5 2.305661358430000e-5
2.344411064980000e-5 2.383812011900000e-5 2.423875144150000e-5 2.464611590640000e-5
2.506032667300000e-5 2.548149880270000e-5 2.590974929030000e-5 2.634519709710000e-5
2.678796318359999e-5 2.723817054330000e-5 2.769594423650000e-5 2.816141142570000e-5
2.863470141030000e-5 2.911594566270001e-5 2.960527786500000e-5 3.010283394600000e-5
3.060875211890000e-5 3.112317291970000e-5 3.164623924640000e-5 3.217809639870000e-5
3.271889211800000e-5 3.326877662880000e-5 3.382790268030000e-5 3.439642558910000e-5
3.497450328160000e-5 3.556229633890000e-5 3.615996804040000e-5 3.676768441010000e-5
3.738561426180000e-5 3.801392924680000e-5 3.865280390100001e-5 3.930241569370000e-5
3.996294507680000e-5 4.063457553500001e-5 4.131749363650000e-5 4.201188908530000e-5
4.271795477350000e-5 4.343588683480000e-5 4.416588469960000e-5 4.490815114960000e-5
4.566289237490000e-5 4.643031803050000e-5 4.721064129530000e-5 4.800407893060000e-5
4.881085134099999e-5 4.963118263510000e-5 5.046530068789999e-5 5.131343720429999e-5
5.217582778330002e-5 5.305271198320001e-5 5.394433338860001e-5 5.485093967800000e-5
5.577278269230000e-5 5.671011850470000e-5 5.766320749260000e-5 5.863231440879999e-5
5.961770845609999e-5 6.061966336130000e-5 6.163845745160001e-5 6.267437373210000e-5
6.372769996380000e-5 6.479872874410000e-5 6.588775758799999e-5 6.699508901039999e-5
6.812103061059998e-5 6.926589515729999e-5 7.043000067579999e-5 7.161367053629998e-5
7.281723354350000e-5 7.404102402820000e-5 7.528538194019998e-5 7.655065294230001e-5
7.783718850690001e-5 7.914534601330001e-5 8.047548884699998e-5 8.182798650050000e-5
8.320321467650000e-5 8.460155539150000e-5 8.602339708259999e-5 8.746913471500001e-5
8.893916989159999e-5 9.043391096510000e-5 9.195377315090001e-5 9.349917864270001e-5
9.507055672980000e-5 9.666834391620000e-5 9.829298404199999e-5 9.994492840640000e-5
1.016246358940000e-4 1.033325731000000e-4 1.050692144630000e-4 1.068350423950000e-4
1.086305474140000e-4 1.104562282840000e-4 1.123125921500000e-4 1.142001546800000e-4
1.161194402100000e-4 1.180709818860000e-4 1.200553218170000e-4 1.220730112200000e-4
1.241246105780000e-4 1.262106897920000e-4 1.283318283430000e-4 1.304886154490000e-4
1.326816502320000e-4 1.349115418820000e-4 1.371789098280000e-4 1.394843839080000e-4
1.418286045480000e-4 1.442122229340000e-4 1.466359011990000e-4 1.491003126010000e-4
1.516061417150000e-4 1.541540846210000e-4 1.567448490980000e-4 1.593791548180000e-4
1.620577335510000e-4 1.647813293620000e-4 1.675506988250000e-4 1.703666112260000e-4
1.732298487810000e-4 1.761412068520000e-4 1.791014941690000e-4 1.821115330530000e-4
1.851721596450000e-4 1.882842241380000e-4 1.914485910150000e-4 1.946661392880000e-4
1.979377627400000e-4 2.012643701760000e-4 2.046468856770000e-4 2.080862488500000e-4
2.115834150970000e-4 2.151393558750000e-4 2.187550589690000e-4 2.224315287640000e-4
2.261697865240000e-4 2.299708706800000e-4 2.338358371120000e-4 2.377657594470000e-4
2.417617293550000e-4 2.458248568530000e-4 2.499562706139999e-4 2.541571182800000e-4
2.584285667800000e-4 2.627718026550000e-4 2.671880323860000e-4 2.716784827340000e-4
2.762444010729999e-4 2.808870557450000e-4 2.856077364050000e-4 2.904077543840000e-4
2.952884430510001e-4 3.002511581840000e-4 3.052972783480000e-4 3.104282052740000e-4
3.156453642530000e-4 3.209502045290000e-4 3.263441997040000e-4 3.318288481440001e-4
3.374056733969999e-4 3.430762246190000e-4 3.488420769970000e-4 3.547048321960000e-4
3.606661187959999e-4 3.667275927470000e-4 3.728909378330000e-4 3.791578661320000e-4
3.855301184990000e-4 3.920094650440000e-4 3.985977056279999e-4 4.052966703600000e-4
4.121082201070000e-4 4.190342470090000e-4 4.260766750069999e-4 4.332374603770000e-4
4.405185922720000e-4 4.479220932750000e-4 4.554500199620000e-4 4.631044634720000e-4
4.708875500880000e-4 4.788014418300000e-4 4.868483370500000e-4 4.950304710510000e-4
5.033501166990000e-4 5.118095850600000e-4 5.204112260410000e-4 5.291574290430000e-4
5.380506236220000e-4 5.470932801670000e-4 5.562879105850000e-4 5.656370690000000e-4
5.751433524610000e-4 5.848094016620000e-4 5.946379016790000e-4 6.046315827150000e-4
6.147932208560000e-4 6.251256388450001e-4 6.356317068639999e-4 6.463143433339999e-4
6.571765157209999e-4 6.682212413670001e-4 6.794515883200001e-4 6.908706761950000e-4
7.024816770330000e-4 7.142878161880000e-4 7.262923732169999e-4 7.384986827990002e-4
7.509101356520000e-4 7.635301794820000e-4 7.763623199379999e-4 7.894101215860000e-4
8.026772089000001e-4 8.161672672660000e-4 8.298840440099999e-4 8.438313494360001e-4
8.580130578850000e-4 8.724331088120001e-4 8.870955078779998e-4 9.020043280679999e-4
9.171637108150000e-4 9.325778671580000e-4 9.482510789039999e-4 9.641876998249998e-4
9.803921568630001e-4 9.968689513590000e-4 1.013622660310000e-3 1.030657937620000e-3
1.047979515440000e-3 1.065592205410000e-3 1.083500900070000e-3 1.101710574170000e-3
1.120226286070000e-3 1.139053179150000e-3 1.158196483200000e-3 1.177661515950000e-3
1.197453684470000e-3 1.217578486710000e-3 1.238041513030000e-3 1.258848447730000e-3
1.280005070650000e-3 1.301517258770000e-3 1.323390987820000e-3 1.345632333990000e-3
1.368247475570000e-3 1.391242694700000e-3 1.414624379070000e-3 1.438399023760000e-3
1.462573232980000e-3 1.487153721950000e-3 1.512147318740000e-3 1.537560966170000e-3
1.563401723750000e-3 1.589676769650000e-3 1.616393402650000e-3 1.643559044210000e-3
1.671181240510000e-3 1.699267664580000e-3 1.727826118360000e-3 1.756864534960000e-3
1.786390980780000e-3 1.816413657800000e-3 1.846940905850000e-3 1.877981204920000e-3
1.909543177500000e-3 1.941635591030000e-3 1.974267360270000e-3 2.007447549790000e-3
2.041185376550000e-3 2.075490212370000e-3 2.110371586590000e-3 2.145839188710000e-3