<UPF version="2.0.1">
<PP_INFO>
Generated by new atomic code, or converted to UPF format
Author:
Generation date:
Pseudopotential type: US
Element: F
Functional:  SLA  PW   GGX  GGC
Suggested minimum cutoff for wavefunctions:   0. Ry
Suggested minimum cutoff for charge density:   0. Ry
The Pseudo was generated with a Non-Relativistic Calculation
L component and cutoff radius for Local Potential:  0   0.0000
Valence configuration:
nl pn  l   occ       Rcut    Rcut US       E pseu
2S  0  0  2.00     10.000      1.600     0.000000
2P  0  1  5.00     10.000      1.800     0.000000
Generation configuration: not available.
</PP_INFO>
<!--
END OF HUMAN READABLE SECTION
-->
<PP_HEADER generated="Generated by new atomic code, or converted to UPF format" author="" date="" comment="" element="F " pseudo_type="US" relativistic="no" is_ultrasoft="true" is_paw="false" is_coulomb="false" has_so="false" has_wfc="false" has_gipaw="false" paw_as_gipaw="false" core_correction="true" functional=" SLA  PW   GGX  GGC" z_valence="7.000000000000e0" total_psenergy="-4.853138640105e1" wfc_cutoff="0.000000000000e0" rho_cutoff="0.000000000000e0" l_max="1" l_max_rho="0" l_local="0" mesh_size="799" number_of_wfc="2" number_of_proj="6"/>
<PP_MESH mesh="799" rmax="2.060662697630e2" zmesh="9.000000000000e0">
<PP_R>
0.000000000000000e0 4.707867675549999e-6 9.496209778650000e-6 1.436640190730000e-5
1.931984317350000e-5 2.435795660510000e-5 2.948218955450000e-5 3.469401411480000e-5
3.999492754220000e-5 4.538645268659999e-5 5.087013842890000e-5 5.644756012580000e-5
6.212032006270000e-5 6.789004791380002e-5 7.375840121020000e-5 7.972706581619999e-5
8.579775641370000e-5 9.197221699459998e-5 9.825222136199997e-5 1.046395736400000e-4
1.111361087900000e-4 1.177436931420000e-4 1.244642249270000e-4 1.312996348240000e-4
1.382518865140000e-4 1.453229772430000e-4 1.525149384000000e-4 1.598298360950000e-4
1.672697717580000e-4 1.748368827380000e-4 1.825333429190000e-4 1.903613633460000e-4
1.983231928570000e-4 2.064211187320000e-4 2.146574673480000e-4 2.230346048490000e-4
2.315549378240000e-4 2.402209140010000e-4 2.490350229460000e-4 2.579997967820000e-4
2.671178109150000e-4 2.763916847750000e-4 2.858240825660000e-4 2.954177140330000e-4
3.051753352410000e-4 3.150997493660000e-4 3.251938074990001e-4 3.354604094690000e-4
3.459025046710000e-4 3.565230929180000e-4 3.673252252990000e-4 3.783120050560000e-4
3.894865884810001e-4 4.008521858139999e-4 4.124120621709999e-4 4.241695384820000e-4
4.361279924410000e-4 4.482908594810000e-4 4.606616337590000e-4 4.732438691580000e-4
4.860411803110000e-4 4.990572436380000e-4 5.122957984030001e-4 5.257606477850000e-4
5.394556599760000e-4 5.533847692869999e-4 5.675519772820000e-4 5.819613539260001e-4
5.966170387540000e-4 6.115232420599998e-4 6.266842461090000e-4 6.421044063620000e-4
6.577881527349999e-4 6.737399908629999e-4 6.899645034020001e-4 7.064663513399999e-4
7.232502753370000e-4 7.403210970919999e-4 7.576837207200001e-4 7.753431341680001e-4
7.933044106420000e-4 8.115727100710000e-4 8.301532805839999e-4 8.490514600180001e-4
8.682726774540001e-4 8.878224547780000e-4 9.077064082609999e-4 9.279302501780002e-4
9.484997904490001e-4 9.694209383030000e-4 9.906997039810001e-4 1.012342200460000e-3
1.034354645220000e-3 1.056743361990000e-3 1.079514782640000e-3 1.102675448940000e-3
1.126232014500000e-3 1.150191246680000e-3 1.174560028500000e-3 1.199345360630000e-3
1.224554363420000e-3 1.250194278930000e-3 1.276272473020000e-3 1.302796437440000e-3
1.329773792010000e-3 1.357212286810000e-3 1.385119804380000e-3 1.413504362020000e-3
1.442374114060000e-3 1.471737354220000e-3 1.501602517990000e-3 1.531978185050000e-3
1.562873081750000e-3 1.594296083600000e-3 1.626256217800000e-3 1.658762665890000e-3
1.691824766350000e-3 1.725452017270000e-3 1.759654079120000e-3 1.794440777480000e-3
1.829822105900000e-3 1.865808228750000e-3 1.902409484150000e-3 1.939636386930000e-3
1.977499631660000e-3 2.016010095710000e-3 2.055178842400000e-3 2.095017124150000e-3
2.135536385730000e-3 2.176748267540000e-3 2.218664608950000e-3 2.261297451710000e-3
2.304659043430000e-3 2.348761841040000e-3 2.393618514420000e-3 2.439241950030000e-3
2.485645254610000e-3 2.532841758910000e-3 2.580845021590000e-3 2.629668833040000e-3
2.679327219420000e-3 2.729834446600000e-3 2.781205024350000e-3 2.833453710430000e-3
2.886595514880000e-3 2.940645704310000e-3 2.995619806290000e-3 3.051533613830000e-3
3.108403189870001e-3 3.166244871950000e-3 3.225075276860001e-3 3.284911305430000e-3
3.345770147410000e-3 3.407669286350000e-3 3.470626504690000e-3 3.534659888809999e-3
3.599787834260000e-3 3.666029051050001e-3 3.733402569000000e-3 3.801927743200000e-3
3.871624259620000e-3 3.942512140730000e-3 4.014611751219999e-3 4.087943803940000e-3
4.162529365749999e-3 4.238389863660000e-3 4.315547090899999e-3 4.394023213249999e-3
4.473840775400000e-3 4.555022707380000e-3 4.637592331190000e-3 4.721573367480000e-3
4.806989942380000e-3 4.893866594420000e-3 4.982228281580000e-3 5.072100388460000e-3
5.163508733590000e-3 5.256479576799999e-3 5.351039626830000e-3 5.447216048940000e-3
5.545036472760000e-3 5.644529000210000e-3 5.745722213560001e-3 5.848645183670000e-3
5.953327478320000e-3 6.059799170690000e-3 6.168090848049999e-3 6.278233620500000e-3
6.390259129930000e-3 6.504199559100000e-3 6.620087640890000e-3 6.737956667700001e-3
6.857840501030000e-3 6.979773581170000e-3 7.103790937150000e-3 7.229928196750000e-3
7.358221596760000e-3 7.488707993400000e-3 7.621424872880000e-3 7.756410362200000e-3
7.893703240060001e-3 8.033342948069999e-3 8.175369602000000e-3 8.319824003359999e-3
8.466747651120000e-3 8.616182753580002e-3 8.768172240569999e-3 8.922759775719999e-3
9.079989769030000e-3 9.239907389650000e-3 9.402558578810000e-3 9.567990063060000e-3
9.736249367640003e-3 9.907384830220000e-3 1.008144561470000e-2 1.025848172530000e-2
1.043854402120000e-2 1.062168423080000e-2 1.080795496660000e-2 1.099740974070000e-2
1.119010297980000e-2 1.138609004080000e-2 1.158542722720000e-2 1.178817180450000e-2
1.199438201750000e-2 1.220411710620000e-2 1.241743732360000e-2 1.263440395240000e-2
1.285507932280000e-2 1.307952683080000e-2 1.330781095570000e-2 1.353999727910000e-2
1.377615250370000e-2 1.401634447220000e-2 1.426064218720000e-2 1.450911583080000e-2
1.476183678440000e-2 1.501887765010000e-2 1.528031227070000e-2 1.554621575120000e-2
1.581666448060000e-2 1.609173615370000e-2 1.637150979300000e-2 1.665606577230000e-2
1.694548583900000e-2 1.723985313770000e-2 1.753925223460000e-2 1.784376914120000e-2
1.815349133930000e-2 1.846850780620000e-2 1.878890903990000e-2 1.911478708560000e-2
1.944623556160000e-2 1.978334968680000e-2 2.012622630750000e-2 2.047496392540000e-2
2.082966272630000e-2 2.119042460810000e-2 2.155735321080000e-2 2.193055394590000e-2
2.231013402670000e-2 2.269620249920000e-2 2.308887027350000e-2 2.348825015530000e-2
2.389445687890000e-2 2.430760713950000e-2 2.472781962720000e-2 2.515521506090000e-2
2.558991622310000e-2 2.603204799500000e-2 2.648173739240000e-2 2.693911360260000e-2
2.740430802070000e-2 2.787745428820000e-2 2.835868833070000e-2 2.884814839760000e-2
2.934597510130000e-2 2.985231145770000e-2 3.036730292750000e-2 3.089109745770000e-2
3.142384552430000e-2 3.196570017570000e-2 3.251681707610000e-2 3.307735455080000e-2
3.364747363130000e-2 3.422733810190000e-2 3.481711454620000e-2 3.541697239590000e-2
3.602708397820000e-2 3.664762456660000e-2 3.727877243030000e-2 3.792070888600000e-2
3.857361834940000e-2 3.923768838890000e-2 3.991310977890000e-2 4.060007655500001e-2
4.129878606929999e-2 4.200943904770000e-2 4.273223964700001e-2 4.346739551370000e-2
4.421511784400000e-2 4.497562144400000e-2 4.574912479170000e-2 4.653585009960000e-2
4.733602337870000e-2 4.814987450319999e-2 4.897763727690000e-2 4.981954949990000e-2
5.067585303750000e-2 5.154679388890000e-2 5.243262225870000e-2 5.333359262820000e-2
5.424996382880000e-2 5.518199911620001e-2 5.612996624599999e-2 5.709413755090001e-2
5.807479001860000e-2 5.907220537170001e-2 6.008667014830000e-2 6.111847578430000e-2
6.216791869780001e-2 6.323530037320001e-2 6.432092744869999e-2 6.542511180400000e-2
6.654817064980000e-2 6.769042661919999e-2 6.885220786019999e-2 7.003384813019999e-2
7.123568689150001e-2 7.245806940900001e-2 7.370134684980000e-2 7.496587638330000e-2
7.625202128430000e-2 7.756015103750000e-2 7.889064144320001e-2 8.024387472550000e-2
8.162023964209999e-2 8.302013159620001e-2 8.444395274950001e-2 8.589211213830000e-2
8.736502579080000e-2 8.886311684650000e-2 9.038681567810000e-2 9.193656001470000e-2
9.351279506800001e-2 9.511597365960000e-2 9.674655635180001e-2 9.840501157949999e-2
1.000918157850000e-1 1.018074535540000e-1 1.035524177560000e-1 1.053272096860000e-1
1.071323392070000e-1 1.089683248980000e-1 1.108356942030000e-1 1.127349835790000e-1
1.146667386560000e-1 1.166315143910000e-1 1.186298752250000e-1 1.206623952480000e-1
1.227296583640000e-1 1.248322584580000e-1 1.269707995670000e-1 1.291458960510000e-1
1.313581727740000e-1 1.336082652800000e-1 1.358968199770000e-1 1.382244943230000e-1
1.405919570130000e-1 1.429998881740000e-1 1.454489795570000e-1 1.479399347400000e-1
1.504734693250000e-1 1.530503111480000e-1 1.556712004850000e-1 1.583368902680000e-1
1.610481462980000e-1 1.638057474660000e-1 1.666104859770000e-1 1.694631675780000e-1
1.723646117910000e-1 1.753156521430000e-1 1.783171364110000e-1 1.813699268640000e-1
1.844749005090000e-1 1.876329493450000e-1 1.908449806180000e-1 1.941119170840000e-1
1.974346972690000e-1 2.008142757440000e-1 2.042516233960000e-1 2.077477277100000e-1
2.113035930470000e-1 2.149202409400000e-1 2.185987103810000e-1 2.223400581230000e-1
2.261453589830000e-1 2.300157061510000e-1 2.339522115030000e-1 2.379560059190000e-1
2.420282396130000e-1 2.461700824590000e-1 2.503827243280000e-1 2.546673754310000e-1
2.590252666640000e-1 2.634576499660000e-1 2.679657986750000e-1 2.725510078940000e-1
2.772145948660000e-1 2.819578993490000e-1 2.867822840010000e-1 2.916891347770000e-1
2.966798613180000e-1 3.017558973650000e-1 3.069187011630000e-1 3.121697558870000e-1
3.175105700640000e-1 3.229426780040000e-1 3.284676402490000e-1 3.340870440130000e-1
3.398025036420000e-1 3.456156610760000e-1 3.515281863240000e-1 3.575417779400000e-1
3.636581635110000e-1 3.698791001580000e-1 3.762063750340000e-1 3.826418058440000e-1
3.891872413630000e-1 3.958445619670000e-1 4.026156801750000e-1 4.095025412000000e-1
4.165071235020000e-1 4.236314393630000e-1 4.308775354600000e-1 4.382474934580000e-1
4.457434306030000e-1 4.533675003310000e-1 4.611218928910000e-1 4.690088359690000e-1
4.770305953330000e-1 4.851894754770000e-1 4.934878202910000e-1 5.019280137290000e-1
5.105124804930000e-1 5.192436867370001e-1 5.281241407660000e-1 5.371563937630000e-1
5.463430405190000e-1 5.556867201809999e-1 5.651901170059999e-1 5.748559611370000e-1
5.846870293829999e-1 5.946861460210000e-1 6.048561836030000e-1 6.152000637840001e-1
6.257207581599999e-1 6.364212891239999e-1 6.473047307320000e-1 6.583742095840000e-1
6.696329057280001e-1 6.810840535710000e-1 6.927309428040001e-1 7.045769193540000e-1
7.166253863410001e-1 7.288798050560001e-1 7.413436959570000e-1 7.540206396780000e-1
7.669142780590001e-1 7.800283151940000e-1 7.933665184920001e-1 8.069327197600000e-1
8.207308163060000e-1 8.347647720550000e-1 8.490386186920000e-1 8.635564568170000e-1
8.783224571230001e-1 8.933408615959999e-1 9.086159847339999e-1 9.241522147840000e-1
9.399540150040000e-1 9.560259249460000e-1 9.723725617570000e-1 9.889986215120000e-1
1.005908880550000e0 1.023108196880000e0 1.040601511500000e0 1.058393849930000e0
1.076490323560000e0 1.094896131140000e0 1.113616560320000e0 1.132656989110000e0
1.152022887450000e0 1.171719818800000e0 1.191753441700000e0 1.212129511430000e0
1.232853881630000e0 1.253932506020000e0 1.275371440070000e0 1.297176842780000e0
1.319354978420000e0 1.341912218330000e0 1.364855042780000e0 1.388190042800000e0
1.411923922070000e0 1.436063498880000e0 1.460615708080000e0 1.485587603020000e0
1.510986357650000e0 1.536819268550000e0 1.563093757010000e0 1.589817371180000e0
1.616997788230000e0 1.644642816590000e0 1.672760398120000e0 1.701358610470000e0
1.730445669340000e0 1.760029930890000e0 1.790119894110000e0 1.820724203250000e0
1.851851650340000e0 1.883511177700000e0 1.915711880500000e0 1.948463009370000e0
1.981773973080000e0 2.015654341230000e0 2.050113846990000e0 2.085162389900000e0
2.120810038750000e0 2.157067034390000e0 2.193943792780000e0 2.231450907890000e0
2.269599154790000e0 2.308399492720000e0 2.347863068280000e0 2.388001218590000e0
2.428825474570000e0 2.470347564220000e0 2.512579416050000e0 2.555533162440000e0
2.599221143180000e0 2.643655908990000e0 2.688850225100000e0 2.734817074970000e0
2.781569663980000e0 2.829121423260000e0 2.877486013500000e0 2.926677328910000e0
2.976709501200000e0 3.027596903660000e0 3.079354155240000e0 3.131996124800000e0
3.185537935370000e0 3.239994968460000e0 3.295382868530000e0 3.351717547450000e0
3.409015189090000e0 3.467292253950000e0 3.526565483900000e0 3.586851906990000e0
3.648168842350000e0 3.710533905140000e0 3.773965011650000e0 3.838480384390000e0
3.904098557400000e0 3.970838381490000e0 4.038719029740000e0 4.107760002930000e0
4.177981135200000e0 4.249402599720000e0 4.322044914510000e0 4.395928948290000e0
4.471075926510000e0 4.547507437440000e0 4.625245438390000e0 4.704312261970000e0
4.784730622560000e0 4.866523622780000e0 4.949714760200000e0 5.034327934000000e0
5.120387451920000e0 5.207918037200000e0 5.296944835670000e0 5.387493423020000e0
5.479589812090000e0 5.573260460410000e0 5.668532277730000e0 5.765432633800000e0
5.863989366230000e0 5.964230788450000e0 6.066185697890000e0 6.169883384210000e0
6.275353637760000e0 6.382626758090000e0 6.491733562710000e0 6.602705395880000e0
6.715574137660000e0 6.830372213070000e0 6.947132601360000e0 7.065888845530000e0
7.186675061970000e0 7.309525950200000e0 7.434476802910000e0 7.561563516070000e0
7.690822599220000e0 7.822291186010000e0 7.956007044800000e0 8.092008589590000e0
8.230334890980000e0 8.371025687440000e0 8.514121396720000e0 8.659663127440000e0
8.807692690930001e0 8.958252613210000e0 9.111386147239999e0 9.267137285320000e0
9.425550771739999e0 9.586672115630000e0 9.750547604019999e0 9.917224315180000e0
1.008675013210000e1 1.025917375630000e1 1.043454472170000e1 1.061291340900000e1
1.079433106000000e1 1.097884979260000e1 1.116652261550000e1 1.135740344330000e1
1.155154711250000e1 1.174900939680000e1 1.194984702320000e1 1.215411768860000e1
1.236188007590000e1 1.257319387120000e1 1.278811978100000e1 1.300671954920000e1
1.322905597540000e1 1.345519293260000e1 1.368519538540000e1 1.391912940910000e1
1.415706220850000e1 1.439906213700000e1 1.464519871660000e1 1.489554265750000e1
1.515016587870000e1 1.540914152850000e1 1.567254400550000e1 1.594044898040000e1
1.621293341680000e1 1.649007559450000e1 1.677195513090000e1 1.705865300450000e1
1.735025157820000e1 1.764683462260000e1 1.794848734020000e1 1.825529639000000e1
1.856734991230000e1 1.888473755400000e1 1.920755049460000e1 1.953588147190000e1
1.986982480890000e1 2.020947644130000e1 2.055493394430000e1 2.090629656120000e1
2.126366523170000e1 2.162714262080000e1 2.199683314870000e1 2.237284302020000e1
2.275528025560000e1 2.314425472190000e1 2.353987816380000e1 2.394226423630000e1
2.435152853710000e1 2.476778864000000e1 2.519116412840000e1 2.562177662990000e1
2.605974985120000e1 2.650520961340000e1 2.695828388860000e1 2.741910283620000e1
2.788779884060000e1 2.836450654900000e1 2.884936291040000e1 2.934250721470000e1
2.984408113260000e1 3.035422875660000e1 3.087309664230000e1 3.140083385040001e1
3.193759198950000e1 3.248352525990000e1 3.303879049760000e1 3.360354721970000e1
3.417795766970000e1 3.476218686470000e1 3.535640264240000e1 3.596077570960000e1
3.657547969090000e1 3.720069117880000e1 3.783658978460000e1 3.848335818960000e1
3.914118219780000e1 3.981025078940000e1 4.049075617480000e1 4.118289385000000e1
4.188686265280000e1 4.260286481990000e1 4.333110604470000e1 4.407179553690000e1
4.482514608230001e1 4.559137410380000e1 4.637069972410000e1 4.716334682820000e1
4.796954312820001e1 4.878952022890001e1 4.962351369380000e1 5.047176311300000e1
5.133451217220000e1 5.221200872250001e1 5.310450485170001e1 5.401225695670000e1
5.493552581700000e1 5.587457666990001e1 5.682967928660000e1 5.780110804960001e1
5.878914203160001e1 5.979406507560000e1 6.081616587650000e1 6.185573806420000e1
6.291308028750001e1 6.398849630060000e1 6.508229504950001e1 6.619479076150000e1
6.732630303510000e1 6.847715693180000e1 6.964768306980000e1 7.083821771850001e1
7.204910289550000e1 7.328068646460000e1 7.453332223610001e1 7.580737006790000e1
7.710319596930001e1 7.842117220600000e1 7.976167740699999e1 8.112509667370000e1
8.251182168990001e1 8.392225083500000e1 8.535678929780001e1 8.681584919360001e1
8.829984968210001e1 8.980921708780000e1 9.134438502280000e1 9.290579451120001e1
9.449389411570001e1 9.610914006650001e1 9.775199639260002e1 9.942293505470001e1
1.011224360810000e2 1.028509877060000e2 1.046090865090000e2 1.063972375570000e2
1.082159545510000e2 1.100657599740000e2 1.119471852400000e2 1.138607708440000e2
1.158070665240000e2 1.177866314120000e2 1.198000341990000e2 1.218478532970000e2
1.239306770050000e2 1.260491036770000e2 1.282037418960000e2 1.303952106490000e2
1.326241395010000e2 1.348911687820000e2 1.371969497640000e2 1.395421448540000e2
1.419274277820000e2 1.443534837920000e2 1.468210098430000e2 1.493307148090000e2
1.518833196790000e2 1.544795577660000e2 1.571201749200000e2 1.598059297390000e2
1.625375937890000e2 1.653159518230000e2 1.681418020100000e2 1.710159561620000e2
1.739392399680000e2 1.769124932310000e2 1.799365701090000e2 1.830123393610000e2
1.861406845960000e2 1.893225045270000e2 1.925587132280000e2 1.958502404010000e2
1.991980316380000e2 2.026030486930000e2 2.060662697630000e2
</PP_R>
<PP_RAB>
4.668083195229999e-6 4.747877562609998e-6 4.829035903340001e-6 4.911581532640000e-6
4.995538164270000e-6 5.080929917350000e-6 5.167781323270000e-6 5.256117332770000e-6
5.345963323060000e-6 5.437345105170000e-6 5.530288931309999e-6 5.624821502450001e-6
5.720969975950000e-6 5.818761973430000e-6 5.918225588619999e-6 6.019389395500001e-6
6.122282456480001e-6 6.226934330730001e-6 6.333375082720000e-6 6.441635290820002e-6
6.551746056080000e-6 6.663739011200001e-6 6.777646329589999e-6 6.893500734620000e-6
7.011335509019999e-6 7.131184504429999e-6 7.253082151150001e-6 7.377063468029999e-6
7.503164072480000e-6 7.631420190790000e-6 7.761868668430000e-6 7.894546980750000e-6
8.029493243650000e-6 8.166746224580002e-6 8.306345353670002e-6 8.448330735039999e-6
8.592743158350000e-6 8.739624110500001e-6 8.889015787529997e-6 9.040961106779999e-6
9.195503719220001e-6 9.352688021930000e-6 9.512559170920001e-6 9.675163094089999e-6
9.840546504400001e-6 1.000875691330000e-5 1.017984264440000e-5 1.035385284720000e-5
1.053083751170000e-5 1.071084748200000e-5 1.089393447150000e-5 1.108015107750000e-5
1.126955079660000e-5 1.146218803950000e-5 1.165811814730000e-5 1.185739740680000e-5
1.206008306710000e-5 1.226623335590000e-5 1.247590749620000e-5 1.268916572330000e-5
1.290606930220000e-5 1.312668054500000e-5 1.335106282920000e-5 1.357928061530000e-5
1.381139946600000e-5 1.404748606450000e-5 1.428760823390000e-5 1.453183495670000e-5
1.478023639440000e-5 1.503288390810000e-5 1.528985007840000e-5 1.555120872680000e-5
1.581703493650000e-5 1.608740507430000e-5 1.636239681220000e-5 1.664208915010000e-5
1.692656243820000e-5 1.721589840020000e-5 1.751018015660000e-5 1.780949224890000e-5
1.811392066370000e-5 1.842355285750000e-5 1.873847778140000e-5 1.905878590740000e-5
1.938456925380000e-5 1.971592141180000e-5 2.005293757250000e-5 2.039571455420000e-5
2.074435083000000e-5 2.109894655630000e-5 2.145960360170000e-5 2.182642557599999e-5
2.219951785990000e-5 2.257898763580000e-5 2.296494391790000e-5 2.335749758400000e-5
2.375676140710000e-5 2.416285008810000e-5 2.457588028840000e-5 2.499597066350000e-5
2.542324189720000e-5 2.585781673650001e-5 2.629982002609999e-5 2.674937874499999e-5
2.720662204290000e-5 2.767168127680000e-5 2.814469004920000e-5 2.862578424650000e-5
2.911510207760000e-5 2.961278411419999e-5 3.011897333070000e-5 3.063381514530000e-5
3.115745746220000e-5 3.169005071380000e-5 3.223174790370000e-5 3.278270465100000e-5
3.334307923499999e-5 3.391303264050000e-5 3.449272860399999e-5 3.508233366100000e-5
3.568201719350000e-5 3.629195147920000e-5 3.691231174020000e-5 3.754327619400000e-5
3.818502610470000e-5 3.883774583440000e-5 3.950162289690000e-5 4.017684801140001e-5
4.086361515679999e-5 4.156212162800000e-5 4.227256809259999e-5 4.299515864800000e-5
4.373010088040000e-5 4.447760592470001e-5 4.523788852440000e-5 4.601116709409999e-5
4.679766378180000e-5 4.759760453270000e-5 4.841121915430000e-5 4.923874138239999e-5
5.008040894810000e-5 5.093646364610001e-5 5.180715140459999e-5 5.269272235510001e-5
5.359343090500000e-5 5.450953581060000e-5 5.544130025110000e-5 5.638899190420000e-5
5.735288302360000e-5 5.833325051639999e-5 5.933037602329999e-5 6.034454599920000e-5
6.137605179540001e-5 6.242518974350000e-5 6.349226124079999e-5 6.457757283600001e-5
6.568143631830001e-5 6.680416880630000e-5 6.794609283920000e-5 6.910753646980000e-5
7.028883335830001e-5 7.149032286860001e-5 7.271235016510000e-5 7.395526631290000e-5
7.521942837750000e-5 7.650519952840002e-5 7.781294914260000e-5 7.914305291140000e-5
8.049589294780001e-5 8.187185789659999e-5 8.327134304579999e-5 8.469475044060001e-5
8.614248899820000e-5 8.761497462600000e-5 8.911263034060001e-5 9.063588638950000e-5
9.218518037470000e-5 9.376095737830001e-5 9.536367009059999e-5 9.699377894000000e-5
9.865175222510000e-5 1.003380662500000e-4 1.020532054590000e-4 1.037976625800000e-4
1.055719387600000e-4 1.073765437150000e-4 1.092119958740000e-4 1.110788225260000e-4
1.129775599740000e-4 1.149087536880000e-4 1.168729584650000e-4 1.188707385800000e-4
1.209026679580000e-4 1.229693303340000e-4 1.250713194180000e-4 1.272092390720000e-4
1.293837034790000e-4 1.315953373210000e-4 1.338447759560000e-4 1.361326656050000e-4
1.384596635350000e-4 1.408264382470000e-4 1.432336696700000e-4 1.456820493540000e-4
1.481722806720000e-4 1.507050790190000e-4 1.532811720180000e-4 1.559012997330000e-4
1.585662148740000e-4 1.612766830200000e-4 1.640334828360000e-4 1.668374062980000e-4
1.696892589180000e-4 1.725898599790000e-4 1.755400427660000e-4 1.785406548110000e-4
1.815925581310000e-4 1.846966294800001e-4 1.878537605950000e-4 1.910648584620000e-4
1.943308455640000e-4 1.976526601580000e-4 2.010312565370000e-4 2.044676053060000e-4
2.079626936610000e-4 2.115175256730000e-4 2.151331225780000e-4 2.188105230660000e-4
2.225507835820000e-4 2.263549786330000e-4 2.302242010890000e-4 2.341595625020000e-4
2.381621934270000e-4 2.422332437410000e-4 2.463738829790000e-4 2.505853006660001e-4
2.548687066600000e-4 2.592253315019999e-4 2.636564267660000e-4 2.681632654190000e-4
2.727471421890000e-4 2.774093739350000e-4 2.821513000260000e-4 2.869742827260000e-4
2.918797075840000e-4 2.968689838340000e-4 3.019435447980000e-4 3.071048483000000e-4
3.123543770820000e-4 3.176936392320000e-4 3.231241686180000e-4 3.286475253240000e-4
3.342652961040000e-4 3.399790948360000e-4 3.457905629830000e-4 3.517013700670000e-4
3.577132141490000e-4 3.638278223150000e-4 3.700469511750000e-4 3.763723873620000e-4
3.828059480540000e-4 3.893494814870000e-4 3.960048674910000e-4 4.027740180309999e-4
4.096588777530000e-4 4.166614245430001e-4 4.237836700970000e-4 4.310276604989999e-4
4.383954768070000e-4 4.458892356520000e-4 4.535110898470000e-4 4.612632290010001e-4
4.691478801560000e-4 4.771673084180000e-4 4.853238176140001e-4 4.936197509519999e-4
5.020574916919999e-4 5.106394638339999e-4 5.193681328130001e-4 5.282460062060000e-4
5.372756344549999e-4 5.464596115970001e-4 5.558005760110001e-4 5.653012111750001e-4
5.749642464379999e-4 5.847924578030001e-4 5.947886687250000e-4 6.049557509220000e-4
6.152966251990000e-4 6.258142622910001e-4 6.365116837100002e-4 6.473919626180001e-4
6.584582247100000e-4 6.697136491080001e-4 6.811614692780000e-4 6.928049739580000e-4
7.046475080990000e-4 7.166924738350000e-4 7.289433314490000e-4 7.414036003769999e-4
7.540768602130000e-4 7.669667517379999e-4 7.800769779700000e-4 7.934113052219999e-4
8.069735641889999e-4 8.207676510459999e-4 8.347975285660000e-4 8.490672272620001e-4
8.635808465420000e-4 8.783425558890002e-4 8.933565960550000e-4 9.086272802839998e-4
9.241589955479999e-4 9.399562038080001e-4 9.560234432969999e-4 9.723653298199999e-4
9.889865580870001e-4 1.005891903050000e-3 1.023086221300000e-3 1.040574452420000e-3
1.058361620450000e-3 1.076452835280000e-3 1.094853294190000e-3 1.113568283260000e-3
1.132603178950000e-3 1.151963449620000e-3 1.171654657100000e-3 1.191682458280000e-3
1.212052606780000e-3 1.232770954540000e-3 1.253843453530000e-3 1.275276157490000e-3
1.297075223610000e-3 1.319246914340000e-3 1.341797599180000e-3 1.364733756510000e-3
1.388061975430000e-3 1.411788957710000e-3 1.435921519630000e-3 1.460466594010000e-3
1.485431232190000e-3 1.510822606020000e-3 1.536648009940000e-3 1.562914863110000e-3
1.589630711470000e-3 1.616803229970000e-3 1.644440224750000e-3 1.672549635390000e-3
1.701139537170000e-3 1.730218143430000e-3 1.759793807880000e-3 1.789875027030000e-3
1.820470442640000e-3 1.851588844190000e-3 1.883239171370000e-3 1.915430516740000e-3
1.948172128220000e-3 1.981473411850000e-3 2.015343934460000e-3 2.049793426380000e-3
2.084831784280000e-3 2.120469074010000e-3 2.156715533480000e-3 2.193581575580000e-3
2.231077791230000e-3 2.269214952340000e-3 2.308004015010000e-3 2.347456122560000e-3
2.387582608840000e-3 2.428395001390000e-3 2.469905024840000e-3 2.512124604210000e-3
2.555065868360000e-3 2.598741153490000e-3 2.643163006670000e-3 2.688344189440000e-3
2.734297681470000e-3 2.781036684310000e-3 2.828574625180000e-3 2.876925160800000e-3
2.926102181340000e-3 2.976119814430000e-3 3.026992429140000e-3 3.078734640210000e-3
3.131361312160000e-3 3.184887563620000e-3 3.239328771640000e-3 3.294700576140000e-3
3.351018884360000e-3 3.408299875470000e-3 3.466560005170000e-3 3.525816010480000e-3
3.586084914500000e-3 3.647384031320000e-3 3.709730971000000e-3 3.773143644600000e-3
3.837640269350000e-3 3.903239373900000e-3 3.969959803580000e-3 4.037820725890001e-3
4.106841635960000e-3 4.177042362170001e-3 4.248443071810000e-3 4.321064276940000e-3
4.394926840219999e-3 4.470051980930000e-3 4.546461281080000e-3 4.624176691580000e-3
4.703220538550000e-3 4.783615529780000e-3 4.865384761190001e-3 4.948551723480000e-3
5.033140308929999e-3 5.119174818190000e-3 5.206679967320000e-3 5.295680894850000e-3
5.386203169020000e-3 5.478272795140001e-3 5.571916223020001e-3 5.667160354610000e-3
5.764032551700000e-3 5.862560643810001e-3 5.962772936150000e-3 6.064698217770000e-3
6.168365769820000e-3 6.273805373999998e-3 6.381047321060000e-3 6.490122419540000e-3
6.601062004600000e-3 6.713897947040000e-3 6.828662662439999e-3 6.945389120480000e-3
7.064110854410001e-3 7.184861970700000e-3 7.307677158800001e-3 7.432591701130001e-3
7.559641483239999e-3 7.688863004060000e-3 7.820293386429999e-3 7.953970387760001e-3
8.089932410870000e-3 8.228218515020000e-3 8.368868427120001e-3 8.511922553169999e-3
8.657421989860000e-3 8.805408536369999e-3 8.955924706349998e-3 9.109013740189999e-3
9.264719617420001e-3 9.423087069310000e-3 9.584161591770000e-3 9.747989458399999e-3
9.914617733760000e-3 1.008409428690000e-2 1.025646780530000e-2 1.043178780830000e-2
1.061010466220000e-2 1.079146959380000e-2 1.097593470580000e-2 1.116355299140000e-2
1.135437834980000e-2 1.154846560130000e-2 1.174587050360000e-2 1.194664976720000e-2
1.215086107200000e-2 1.235856308410000e-2 1.256981547230000e-2 1.278467892520000e-2
1.300321516890000e-2 1.322548698480000e-2 1.345155822710000e-2 1.368149384180000e-2
1.391535988500000e-2 1.415322354180000e-2 1.439515314580000e-2 1.464121819870000e-2
1.489148939040000e-2 1.514603861870000e-2 1.540493901090000e-2 1.566826494390000e-2
1.593609206630000e-2 1.620849731960000e-2 1.648555896040000e-2 1.676735658340000e-2
1.705397114340000e-2 1.734548497940000e-2 1.764198183750000e-2 1.794354689560000e-2
1.825026678760000e-2 1.856222962800000e-2 1.887952503780000e-2 1.920224416980000e-2
1.953047973490000e-2 1.986432602900000e-2 2.020387895950000e-2 2.054923607350000e-2
2.090049658540000e-2 2.125776140550000e-2 2.162113316920000e-2 2.199071626590000e-2
2.236661687000000e-2 2.274894297020000e-2 2.313780440150000e-2 2.353331287630000e-2
2.393558201660000e-2 2.434472738630000e-2 2.476086652510000e-2 2.518411898180000e-2
2.561460634850000e-2 2.605245229589999e-2 2.649778260880000e-2 2.695072522180000e-2
2.741141025670000e-2 2.787997005929999e-2 2.835653923780000e-2 2.884125470130000e-2
2.933425569910000e-2 2.983568386100000e-2 3.034568323760000e-2 3.086440034170000e-2
3.139198419070000e-2 3.192858634939999e-2 3.247436097310000e-2 3.302946485220000e-2
3.359405745750000e-2 3.416830098540000e-2 3.475236040500000e-2 3.534640350530000e-2
3.595060094330000e-2 3.656512629330000e-2 3.719015609650000e-2 3.782586991180001e-2
3.847245036770000e-2 3.913008321400000e-2 3.979895737610000e-2 4.047926500850000e-2
4.117120155040000e-2 4.187496578180000e-2 4.259075988060000e-2 4.331878948050000e-2
4.405926373040000e-2 4.481239535420000e-2 4.557840071190000e-2 4.635749986230000e-2
4.714991662530000e-2 4.795587864690000e-2 4.877561746450000e-2 4.960936857320000e-2
5.045737149340001e-2 5.131986984010000e-2 5.219711139230000e-2 5.308934816460001e-2
5.399683647920000e-2 5.491983704010000e-2 5.585861500739999e-2 5.681344007400000e-2
5.778458654240000e-2 5.877233340440000e-2 5.977696442050000e-2 6.079876820170000e-2
6.183803829249999e-2 6.289507325510001e-2 6.397017675520001e-2 6.506365764919999e-2
6.617583007299999e-2 6.730701353220001e-2 6.845753299399999e-2 6.962771898020000e-2
7.081790766279999e-2 7.202844095990001e-2 7.325966663420001e-2 7.451193839309999e-2
7.578561599010001e-2 7.708106532800000e-2 7.839865856439999e-2 7.973877421830000e-2
8.110179727909999e-2 8.248811931680001e-2 8.389813859500000e-2 8.533226018490002e-2