<UPF version="2.0.1">
<PP_INFO>
Generated by new atomic code, or converted to UPF format
Author:
Generation date:
Pseudopotential type: US
Element: S
Functional:  SLA  PW   GGX  GGC
Suggested minimum cutoff for wavefunctions:   0. Ry
Suggested minimum cutoff for charge density:   0. Ry
The Pseudo was generated with a Non-Relativistic Calculation
L component and cutoff radius for Local Potential:  0   0.0000
Valence configuration:
nl pn  l   occ       Rcut    Rcut US       E pseu
3S  0  0  2.00     10.000      1.700     0.000000
3P  0  1  4.00     10.000      1.700     0.000000
Generation configuration: not available.
</PP_INFO>
<!--
END OF HUMAN READABLE SECTION
-->
<PP_HEADER generated="Generated by new atomic code, or converted to UPF format" author="" date="" comment="" element="S " pseudo_type="US" relativistic="no" is_ultrasoft="true" is_paw="false" is_coulomb="false" has_so="false" has_wfc="false" has_gipaw="false" paw_as_gipaw="false" core_correction="false" functional=" SLA  PW   GGX  GGC" z_valence="6.000000000000e0" total_psenergy="-2.020151769843e1" wfc_cutoff="0.000000000000e0" rho_cutoff="0.000000000000e0" l_max="2" l_max_rho="0" l_local="0" mesh_size="811" number_of_wfc="2" number_of_proj="6"/>
<PP_MESH mesh="811" rmax="1.420563410000e2" zmesh="1.600000000000e1">
<PP_R>
0.000000000000000e0 2.648175567500000e-6 5.341618000490000e-6 8.081101072869998e-6
1.086741178510000e-5 1.370135059040000e-5 1.658373162440000e-5 1.951538293960000e-5
2.249714674250000e-5 2.552987963620000e-5 2.861445286620000e-5 3.175175257079999e-5
3.494268003530000e-5 3.818815195150000e-5 4.148910068070000e-5 4.484647452160000e-5
4.826123798269999e-5 5.173437205950000e-5 5.526687451610001e-5 5.885976017230000e-5
6.251406119439999e-5 6.623082739260000e-5 7.001112652170000e-5 7.385604458860001e-5
7.776668616390001e-5 8.174417469910001e-5 8.578965284980001e-5 8.990428280360000e-5
9.408924661389999e-5 9.834574654009998e-5 1.026750053920000e-4 1.070782668820000e-4
1.115567959820000e-4 1.161118792870000e-4 1.207448253830000e-4 1.254569652280000e-4
1.302496525260000e-4 1.351242641250000e-4 1.400822004070000e-4 1.451248856900000e-4
1.502537686400000e-4 1.554703226860000e-4 1.607760464430000e-4 1.661724641440000e-4
1.716611260730000e-4 1.772436090180000e-4 1.829215167180000e-4 1.886964803260000e-4
1.945701588780000e-4 2.005442397660000e-4 2.066204392300000e-4 2.128005028440000e-4
2.190862060210000e-4 2.254793545200000e-4 2.319817849710000e-4 2.385953653960000e-4
2.453219957480000e-4 2.521636084580000e-4 2.591221689890000e-4 2.661996764010000e-4
2.733981639250000e-4 2.807196995460000e-4 2.881663866020000e-4 2.957403643790001e-4
3.034438087360000e-4 3.112789327240000e-4 3.192479872209999e-4 3.273532615830000e-4
3.355970842990000e-4 3.439818236590000e-4 3.525098884360000e-4 3.611837285789999e-4
3.700058359130000e-4 3.789787448610000e-4 3.881050331640000e-4 3.973873226280000e-4
4.068282798770000e-4 4.164306171140001e-4 4.261970929050001e-4 4.361305129689999e-4
4.462337309860000e-4 4.565096494150000e-4 4.669612203280000e-4 4.775914462600000e-4
4.884033810680000e-4 4.994001308130000e-4 5.105848546470000e-4 5.219607657250000e-4
5.335311321270000e-4 5.452992777950000e-4 5.572685834900000e-4 5.694424877599999e-4
5.818244879340000e-4 5.944181411210000e-4 6.072270652330001e-4 6.202549400260001e-4
6.335055081570000e-4 6.469825762580000e-4 6.606900160289999e-4 6.746317653520000e-4
6.888118294230000e-4 7.032342819000002e-4 7.179032660730000e-4 7.328229960580001e-4
7.479977580060000e-4 7.634319113309999e-4 7.791298899659999e-4 7.950962036389999e-4
8.113354391600001e-4 8.278522617490001e-4 8.446514163700002e-4 8.617377290929999e-4
8.791161084870001e-4 8.967915470219999e-4 9.147691225120001e-4 9.330539995639999e-4
9.516514310720002e-4 9.705667597160000e-4 9.898054195040000e-4 1.009372937330000e-3
1.029274934570000e-3 1.049517128670000e-3 1.070105334830000e-3 1.091045467650000e-3
1.112343542810000e-3 1.134005678840000e-3 1.156038098850000e-3 1.178447132340000e-3
1.201239216970000e-3 1.224420900490000e-3 1.247998842530000e-3 1.271979816590000e-3
1.296370711930000e-3 1.321178535580000e-3 1.346410414360000e-3 1.372073596890000e-3
1.398175455720000e-3 1.424723489390000e-3 1.451725324640000e-3 1.479188718590000e-3
1.507121560920000e-3 1.535531876210000e-3 1.564427826200000e-3 1.593817712120000e-3
1.623709977120000e-3 1.654113208670000e-3 1.685036141040000e-3 1.716487657780000e-3
1.748476794300000e-3 1.781012740470000e-3 1.814104843230000e-3 1.847762609310000e-3
1.881995707920000e-3 1.916813973570000e-3 1.952227408890000e-3 1.988246187450000e-3
2.024880656770000e-3 2.062141341220000e-3 2.100038945060001e-3 2.138584355550000e-3
2.177788646040000e-3 2.217663079160000e-3 2.258219110060000e-3 2.299468389720000e-3
2.341422768240000e-3 2.384094298310000e-3 2.427495238630000e-3 2.471638057460000e-3
2.516535436160000e-3 2.562200272900000e-3 2.608645686290000e-3 2.655885019210000e-3
2.703931842590000e-3 2.752799959360000e-3 2.802503408390000e-3 2.853056468510000e-3
2.904473662640000e-3 2.956769761950000e-3 3.009959790090000e-3 3.064059027530000e-3
3.119083015930000e-3 3.175047562620001e-3 3.231968745130000e-3 3.289862915820000e-3
3.348746706550000e-3 3.408637033510000e-3 3.469551102030000e-3 3.531506411530000e-3
3.594520760590000e-3 3.658612251990000e-3 3.723799298000000e-3 3.790100625580000e-3
3.857535281830000e-3 3.926122639410001e-3 3.995882402150000e-3 4.066834610670000e-3
4.138999648180000e-3 4.212398246290000e-3 4.287051491000000e-3 4.362980828740000e-3
4.440208072540000e-3 4.518755408290000e-3 4.598645401120000e-3 4.679901001889999e-3
4.762545553750000e-3 4.846602798890000e-3 4.932096885320000e-3 5.019052373840001e-3
5.107494245080001e-3 5.197447906679999e-3 5.288939200580000e-3 5.381994410470000e-3
5.476640269300001e-3 5.572903966999999e-3 5.670813158260000e-3 5.770395970499999e-3
5.871681011940001e-3 5.974697379810000e-3 6.079474668720000e-3 6.186042979149999e-3
6.294432926119999e-3 6.404675647970000e-3 6.516802815279999e-3 6.630846640040000e-3
6.746839884820001e-3 6.864815872239999e-3 6.984808494510000e-3 7.106852223200000e-3
7.230982119100000e-3 7.357233842339999e-3 7.485643662579999e-3 7.616248469499999e-3
7.749085783310000e-3 7.884193765620001e-3 8.021611230320001e-3 8.161377654800001e-3
8.303533191250001e-3 8.448118678189999e-3 8.595175652260000e-3 8.744746360060001e-3
8.896873770359999e-3 9.051601586440000e-3 9.208974258589999e-3 9.369036996929999e-3
9.531835784409999e-3 9.697417389950001e-3 9.865829381950000e-3 1.003712014190000e-2
1.021133887840000e-2 1.038853564100000e-2 1.056876133500000e-2 1.075206773560000e-2
1.093850750340000e-2 1.112813419880000e-2 1.132100229790000e-2 1.151716720800000e-2
1.171668528350000e-2 1.191961384200000e-2 1.212601118110000e-2 1.233593659460000e-2
1.254945039000000e-2 1.276661390580000e-2 1.298748952880000e-2 1.321214071240000e-2
1.344063199440000e-2 1.367302901600000e-2 1.390939854030000e-2 1.414980847180000e-2
1.439432787550000e-2 1.464302699720000e-2 1.489597728320000e-2 1.515325140140000e-2
1.541492326160000e-2 1.568106803710000e-2 1.595176218600000e-2 1.622708347370000e-2
1.650711099450000e-2 1.679192519500000e-2 1.708160789670000e-2 1.737624231990000e-2
1.767591310740000e-2 1.798070634880000e-2 1.829070960530000e-2 1.860601193480000e-2
1.892670391760000e-2 1.925287768230000e-2 1.958462693230000e-2 1.992204697270000e-2
2.026523473780000e-2 2.061428881870000e-2 2.096930949210000e-2 2.133039874830000e-2
2.169766032150000e-2 2.207119971870000e-2 2.245112425060000e-2 2.283754306220000e-2
2.323056716400000e-2 2.363030946430000e-2 2.403688480140000e-2 2.445040997650000e-2
2.487100378730000e-2 2.529878706230000e-2 2.573388269530001e-2 2.617641568100000e-2
2.662651315050000e-2 2.708430440800000e-2 2.754992096820001e-2 2.802349659370000e-2
2.850516733360000e-2 2.899507156249999e-2 2.949335002050000e-2 3.000014585340000e-2
3.051560465370000e-2 3.103987450280000e-2 3.157310601340000e-2 3.211545237240000e-2
3.266706938550000e-2 3.322811552160000e-2 3.379875195840000e-2 3.437914262870001e-2
3.496945426750000e-2 3.556985645989999e-2 3.618052168990000e-2 3.680162538970000e-2
3.743334599050000e-2 3.807586497330000e-2 3.872936692140000e-2 3.939403957320000e-2
4.007007387640000e-2 4.075766404260000e-2 4.145700760300000e-2 4.216830546560000e-2
4.289176197240000e-2 4.362758495860001e-2 4.437598581180000e-2 4.513717953310000e-2
4.591138479870000e-2 4.669882402290000e-2 4.749972342160000e-2 4.831431307780000e-2
4.914282700730000e-2 4.998550322620000e-2 5.084258381890000e-2 5.171431500830001e-2
5.260094722570000e-2 5.350273518350001e-2 5.441993794790000e-2 5.535281901350000e-2
5.630164637889999e-2 5.726669262400000e-2 5.824823498780000e-2 5.924655544850000e-2
6.026194080410000e-2 6.129468275540000e-2 6.234507798899999e-2 6.341342826309999e-2
6.450004049419999e-2 6.560522684490000e-2 6.672930481380001e-2 6.787259732690000e-2
6.903543282980000e-2 7.021814538280000e-2 7.142107475630000e-2 7.264456652860001e-2
7.388897218520000e-2 7.515464921990000e-2 7.644196123700000e-2 7.775127805650000e-2
7.908297581970000e-2 8.043743709759999e-2 8.181505100079999e-2 8.321621329099999e-2
8.464132649510001e-2 8.609080002050000e-2 8.756505027299999e-2 8.906450077600001e-2
9.058958229270001e-2 9.214073294949999e-2 9.371839836199999e-2 9.532303176290000e-2
9.695509413229999e-2 9.861505433020000e-2 1.003033892310000e-1 1.020205838610000e-1
1.037671315360000e-1 1.055435340060000e-1 1.073503015980000e-1 1.091879533600000e-1
1.110570172140000e-1 1.129580301060000e-1 1.148915381600000e-1 1.168580968370000e-1
1.188582710890000e-1 1.208926355290000e-1 1.229617745890000e-1 1.250662826940000e-1
1.272067644280000e-1 1.293838347100000e-1 1.315981189700000e-1 1.338502533290000e-1
1.361408847820000e-1 1.384706713830000e-1 1.408402824350000e-1 1.432503986800000e-1
1.457017124990000e-1 1.481949281060000e-1 1.507307617550000e-1 1.533099419410000e-1
1.559332096120000e-1 1.586013183840000e-1 1.613150347510000e-1 1.640751383120000e-1
1.668824219920000e-1 1.697376922680000e-1 1.726417694040000e-1 1.755954876870000e-1
1.785996956610000e-1 1.816552563780000e-1 1.847630476400000e-1 1.879239622570000e-1
1.911389082990000e-1 1.944088093550000e-1 1.977346048070000e-1 2.011172500910000e-1
2.045577169750000e-1 2.080569938390000e-1 2.116160859570000e-1 2.152360157870000e-1
2.189178232670000e-1 2.226625661060000e-1 2.264713200990000e-1 2.303451794250000e-1
2.342852569700000e-1 2.382926846410000e-1 2.423686136970000e-1 2.465142150700000e-1
2.507306797140000e-1 2.550192189360000e-1 2.593810647510000e-1 2.638174702330000e-1
2.683297098750000e-1 2.729190799560000e-1 2.775868989140000e-1 2.823345077220000e-1
2.871632702780000e-1 2.920745737900000e-1 2.970698291810000e-1 3.021504714920000e-1
3.073179602920000e-1 3.125737801020000e-1 3.179194408160000e-1 3.233564781390000e-1
3.288864540280000e-1 3.345109571370000e-1 3.402316032770000e-1 3.460500358780000e-1
3.519679264650000e-1 3.579869751330000e-1 3.641089110370000e-1 3.703354928910000e-1
3.766685094720000e-1 3.831097801340000e-1 3.896611553270000e-1 3.963245171370000e-1
4.031017798170000e-1 4.099948903440000e-1 4.170058289760000e-1 4.241366098189999e-1
4.313892814080000e-1 4.387659272970000e-1 4.462686666520000e-1 4.538996548650000e-1
4.616610841720000e-1 4.695551842810000e-1 4.775842230140000e-1 4.857505069590000e-1
4.940563821310000e-1 5.025042346479999e-1 5.110964914129999e-1 5.198356208160000e-1
5.287241334400000e-1 5.377645827820000e-1 5.469595659890000e-1 5.563117246010000e-1
5.658237453120000e-1 5.754983607420000e-1 5.853383502210000e-1 5.953465405879999e-1
6.055258070010000e-1 6.158790737670000e-1 6.264093151800000e-1 6.371195563730000e-1
6.480128741920001e-1 6.590923980760000e-1 6.703613109590000e-1 6.818228501800000e-1
6.934803084180000e-1 7.053370346359999e-1 7.173964350399999e-1 7.296619740650000e-1
7.421371753610000e-1 7.548256228120001e-1 7.677309615650000e-1 7.808568990730000e-1
7.942072061639999e-1 8.077857181219999e-1 8.215963357920000e-1 8.356430266969999e-1
8.499298261790001e-1 8.644608385600000e-1 8.792402383170000e-1 8.942722712870001e-1
9.095612558819999e-1 9.251115843310000e-1 9.409277239420000e-1 9.570142183869999e-1
9.733756890039999e-1 9.900168361270000e-1 1.006942440440000e0 1.024157364330000e0
1.041666553320000e0 1.059475037460000e0 1.077587932780000e0 1.096010442770000e0
1.114747859860000e0 1.133805566940000e0 1.153189038930000e0 1.172903844320000e0
1.192955646790000e0 1.213350206850000e0 1.234093383440000e0 1.255191135690000e0
1.276649524570000e0 1.298474714660000e0 1.320672975910000e0 1.343250685460000e0
1.366214329440000e0 1.389570504870000e0 1.413325921530000e0 1.437487403870000e0
1.462061893040000e0 1.487056448800000e0 1.512478251620000e0 1.538334604670000e0
1.564632935990000e0 1.591380800580000e0 1.618585882590000e0 1.646255997510000e0
1.674399094430000e0 1.703023258310000e0 1.732136712320000e0 1.761747820200000e0
1.791865088640000e0 1.822497169760000e0 1.853652863550000e0 1.885341120440000e0
1.917571043870000e0 1.950351892850000e0 1.983693084690000e0 2.017604197680000e0
2.052094973820000e0 2.087175321640000e0 2.122855319050000e0 2.159145216220000e0
2.196055438540000e0 2.233596589590000e0 2.271779454230000e0 2.310615001650000e0
2.350114388550000e0 2.390288962340000e0 2.431150264410000e0 2.472710033410000e0
2.514980208660000e0 2.557972933560000e0 2.601700559100000e0 2.646175647360000e0
2.691410975190000e0 2.737419537820000e0 2.784214552610000e0 2.831809462880000e0
2.880217941710000e0 2.929453895920000e0 2.979531470070000e0 3.030465050450000e0
3.082269269300000e0 3.134959008980000e0 3.188549406220000e0 3.243055856510000e0
3.298494018500000e0 3.354879818500000e0 3.412229455060000e0 3.470559403620000e0
3.529886421240000e0 3.590227551430000e0 3.651600129020000e0 3.714021785180000e0
3.777510452440000e0 3.842084369850000e0 3.907762088260000e0 3.974562475610000e0
4.042504722360000e0 4.111608346990000e0 4.181893201640000e0 4.253379477790000e0
4.326087712060000e0 4.400038792130000e0 4.475253962700000e0 4.551754831640000e0
4.629563376180000e0 4.708701949190000e0 4.789193285650000e0 4.871060509180000e0
4.954327138650000e0 5.039017094930000e0 5.125154707820000e0 5.212764722990000e0
5.301872309100000e0 5.392503065040000e0 5.484683027260000e0 5.578438677290000e0
5.673796949310000e0 5.770785237910000e0 5.869431405940000e0 5.969763792540000e0
6.071811221260000e0 6.175603008370000e0 6.281168971210000e0 6.388539436870000e0
6.497745250780000e0 6.608817785680000e0 6.721788950550000e0 6.836691199810000e0
6.953557542670000e0 7.072421552560000e0 7.193317376810000e0 7.316279746450000e0
7.441343986190000e0 7.568546024570000e0 7.697922404270000e0 7.829510292620000e0
7.963347492280000e0 8.099472452080001e0 8.237924278090000e0 8.378742744840000e0
8.521968306750001e0 8.667642109750000e0 8.815806003120001e0 8.966502551460000e0
9.119775046979999e0 9.275667521900001e0 9.434224761119999e0 9.595492315050000e0
9.759516512750000e0 9.926344475200001e0 1.009602412880000e1 1.026860421930000e1
1.044413432560000e1 1.062266487410000e1 1.080424715320000e1 1.098893332790000e1
1.117677645500000e1 1.136783049820000e1 1.156215034370000e1 1.175979181570000e1
1.196081169280000e1 1.216526772420000e1 1.237321864610000e1 1.258472419880000e1
1.279984514380000e1 1.301864328100000e1 1.324118146710000e1 1.346752363290000e1
1.369773480210000e1 1.393188111000000e1 1.417002982220000e1 1.441224935430000e1
1.465860929130000e1 1.490918040750000e1 1.516403468730000e1 1.542324534540000e1
1.568688684780000e1 1.595503493380000e1 1.622776663710000e1 1.650516030830000e1
1.678729563710000e1 1.707425367560000e1 1.736611686130000e1 1.766296904080000e1
1.796489549410000e1 1.827198295870000e1 1.858431965490000e1 1.890199531110000e1
1.922510118920000e1 1.955373011140000e1 1.988797648640000e1 2.022793633660000e1
2.057370732610000e1 2.092538878810000e1 2.128308175380000e1 2.164688898160000e1
2.201691498630000e1 2.239326606900000e1 2.277605034830000e1 2.316537779060000e1
2.356136024220000e1 2.396411146120000e1 2.437374715010000e1 2.479038498950001e1
2.521414467130001e1 2.564514793340000e1 2.608351859480000e1 2.652938259080000e1
2.698286800960000e1 2.744410512880000e1 2.791322645280000e1 2.839036675110000e1
2.887566309690000e1 2.936925490640000e1 2.987128397910000e1 3.038189453810000e1
3.090123327200000e1 3.142944937680000e1 3.196669459870000e1 3.251312327790000e1
3.306889239280000e1 3.363416160500000e1 3.420909330550000e1 3.479385266110000e1
3.538860766170000e1 3.599352916910000e1 3.660879096530000e1 3.723456980330000e1
3.787104545720000e1 3.851840077420000e1 3.917682172680000e1 3.984649746670000e1
4.052762037870000e1 4.122038613640000e1 4.192499375780001e1 4.264164566320001e1
4.337054773270000e1 4.411190936590000e1 4.486594354150000e1 4.563286687900000e1
4.641289970060000e1 4.720626609470000e1 4.801319398000000e1 4.883391517140001e1
4.966866544620000e1 5.051768461190001e1 5.138121657530000e1 5.225950941260001e1
5.315281544010000e1 5.406139128740000e1 5.498549797080000e1 5.592540096830001e1
5.688137029580000e1 5.785368058470000e1 5.884261116110000e1 5.984844612560000e1
6.087147443500001e1 6.191198998550000e1 6.297029169730000e1 6.404668359980001e1
6.514147491970000e1 6.625498016930000e1 6.738751923720000e1 6.853941747980000e1
6.971100581520000e1 7.090262081820001e1 7.211460481660001e1 7.334730599000000e1
7.460107846960000e1 7.587628243990000e1 7.717328424240001e1 7.849245648060000e1
7.983417812720001e1 8.119883463280001e1 8.258681803680000e1 8.399852708010000e1
8.543436731920002e1 8.689475124330000e1 8.838009839250001e1 8.989083547820000e1
9.142739650599999e1 9.299022290020000e1 9.457976363040000e1 9.619647534110001e1
9.784082248210000e1 9.951327744260000e1 1.012143206870000e2 1.029444408910000e2
1.047041350850000e2 1.064939087960000e2 1.083142761910000e2 1.101657602260000e2
1.120488927960000e2 1.139642148900000e2 1.159122767410000e2 1.178936379920000e2
1.199088678480000e2 1.219585452450000e2 1.240432590170000e2 1.261636080620000e2
1.283202015140000e2 1.305136589220000e2 1.327446104230000e2 1.350136969260000e2
1.373215702960000e2 1.396688935410000e2 1.420563410000000e2
</PP_R>
<PP_RAB>
2.625796797320001e-6 2.670681128969999e-6 2.716332695630000e-6 2.762764612110000e-6
2.809990217400000e-6 2.858023078510000e-6 2.906876994340000e-6 2.956565999680000e-6
3.007104369219999e-6 3.058506621660000e-6 3.110787523860000e-6 3.163962095130000e-6
3.218045611470000e-6 3.273053610050000e-6 3.329001893600001e-6 3.385906534970000e-6
3.443783881769999e-6 3.502650561039999e-6 3.562523484030000e-6 3.623419851080000e-6
3.685357156539999e-6 3.748353193800000e-6 3.812426060399999e-6 3.877594163220000e-6
3.943876223820000e-6 4.011291283739999e-6 4.079858710020001e-6 4.149598200769999e-6
4.220529790770000e-6 4.292673857320000e-6 4.366051125989999e-6 4.440682676670000e-6
4.516589949549999e-6 4.593794751330000e-6 4.672319261440000e-6 4.752186038460000e-6
4.833418026570000e-6 4.916038562150000e-6 5.000071380480000e-6 5.085540622569999e-6
5.172470842059999e-6 5.260887012330000e-6 5.350814533640001e-6 5.442279240430000e-6
5.535307408720000e-6 5.629925763730000e-6 5.726161487460000e-6 5.824042226580000e-6
5.923596100330000e-6 6.024851708610001e-6 6.127838140200000e-6 6.232584981120000e-6
6.339122323090001e-6 6.447480772240000e-6 6.557691457850000e-6 6.669786041320000e-6
6.783796725249999e-6 6.899756262710000e-6 7.017697966630000e-6 7.137655719370001e-6
7.259663982480000e-6 7.383757806579999e-6 7.509972841410000e-6 7.638345346109999e-6
7.768912199629998e-6 7.901710911280001e-6 8.036779631569999e-6 8.174157163140000e-6
8.313882971880002e-6 8.455997198310000e-6 8.600540669110000e-6 8.747554908820000e-6
8.897082151780001e-6 9.049165354279999e-6 9.203848206870001e-6 9.361175146950000e-6
9.521191371510000e-6 9.683942850099999e-6 9.849476338079999e-6 1.001783939000000e-5
1.018908037340000e-5 1.036324848230000e-5 1.054039375200000e-5 1.072056707290000e-5
1.090382020530000e-5 1.109020579410000e-5 1.127977738450000e-5 1.147258943670000e-5
1.166869734180000e-5 1.186815743790000e-5 1.207102702600000e-5 1.227736438650000e-5
1.248722879620000e-5 1.270068054510000e-5 1.291778095380000e-5 1.313859239100000e-5
1.336317829150000e-5 1.359160317460000e-5 1.382393266220000e-5 1.406023349820000e-5
1.430057356720000e-5 1.454502191430000e-5 1.479364876470000e-5 1.504652554410000e-5
1.530372489910000e-5 1.556532071820000e-5 1.583138815270000e-5 1.610200363860000e-5
1.637724491870000e-5 1.665719106430000e-5 1.694192249850000e-5 1.723152101920000e-5
1.752606982250000e-5 1.782565352650000e-5 1.813035819580000e-5 1.844027136620000e-5
1.875548206970000e-5 1.907608086030000e-5 1.940215983980000e-5 1.973381268430000e-5
2.007113467140000e-5 2.041422270700000e-5 2.076317535380000e-5 2.111809285910000e-5
2.147907718390000e-5 2.184623203180000e-5 2.221966287950000e-5 2.259947700640000e-5
2.298578352570000e-5 2.337869341580000e-5 2.377831955210000e-5 2.418477673950000e-5
2.459818174530000e-5 2.501865333260000e-5 2.544631229500000e-5 2.588128149040000e-5
2.632368587730000e-5 2.677365254960000e-5 2.723131077430000e-5 2.769679202760000e-5
2.817023003330000e-5 2.865176080100000e-5 2.914152266510000e-5 2.963965632470000e-5
3.014630488410000e-5 3.066161389350000e-5 3.118573139120000e-5 3.171880794610000e-5
3.226099670080000e-5 3.281245341550000e-5 3.337333651309999e-5 3.394380712450000e-5
3.452402913490000e-5 3.511416923070000e-5 3.571439694790000e-5 3.632488472030000e-5
3.694580792910001e-5 3.757734495350000e-5 3.821967722210000e-5 3.887298926430000e-5
3.953746876410000e-5 4.021330661360000e-5 4.090069696790000e-5 4.159983730100000e-5
4.231092846230001e-5 4.303417473470000e-5 4.376978389270000e-5 4.451796726270000e-5
4.527893978310001e-5 4.605292006680000e-5 4.684013046330000e-5 4.764079712280000e-5
4.845515006149999e-5 4.928342322710000e-5 5.012585456660000e-5 5.098268609410001e-5
5.185416396070001e-5 5.274053852530001e-5 5.364206442600001e-5 5.455900065370000e-5
5.549161062660001e-5 5.644016226540000e-5 5.740492807069999e-5 5.838618520100001e-5
5.938421555239999e-5 6.039930583989999e-5 6.143174767910001e-5 6.248183767070001e-5
6.354987748520001e-5 6.463617394979999e-5 6.574103913630001e-5 6.686479045130000e-5
6.800775072659999e-5 6.917024831270000e-5 7.035261717270000e-5 7.155519697820000e-5
7.277833320710001e-5 7.402237724290000e-5 7.528768647520000e-5 7.657462440300000e-5
7.788356073860001e-5 7.921487151410000e-5 8.056893918920000e-5 8.194615276160000e-5
8.334690787790000e-5 8.477160694800000e-5 8.622065926039999e-5 8.769448109970000e-5
8.919349586650000e-5 9.071813419869999e-5 9.226883409530000e-5 9.384604104260001e-5
9.545020814140003e-5 9.708179623790000e-5 9.874127405600001e-5 1.004291183310000e-4
1.021458139490000e-4 1.038918540820000e-4 1.056677403350000e-4 1.074739828850000e-4
1.093111006300000e-4 1.111796213390000e-4 1.130800818020000e-4 1.150130279840000e-4
1.169790151840000e-4 1.189786081910000e-4 1.210123814500000e-4 1.230809192240000e-4
1.251848157650000e-4 1.273246754810000e-4 1.295011131120000e-4 1.317147539070000e-4
1.339662338030000e-4 1.362561996040000e-4 1.385853091760000e-4 1.409542316240000e-4
1.433636474960000e-4 1.458142489700000e-4 1.483067400560000e-4 1.508418367980000e-4
1.534202674810000e-4 1.560427728390000e-4 1.587101062650000e-4 1.614230340330000e-4
1.641823355160000e-4 1.669888034070000e-4 1.698432439490000e-4 1.727464771690000e-4
1.756993371090000e-4 1.787026720680000e-4 1.817573448470000e-4 1.848642329950000e-4
1.880242290590000e-4 1.912382408450000e-4 1.945071916780000e-4 1.978320206630000e-4
2.012136829590000e-4 2.046531500520000e-4 2.081514100360001e-4 2.117094678910000e-4
2.153283457800000e-4 2.190090833360000e-4 2.227527379640000e-4 2.265603851430000e-4
2.304331187360000e-4 2.343720513049999e-4 2.383783144290000e-4 2.424530590310000e-4
2.465974557040000e-4 2.508126950540000e-4 2.550999880390000e-4 2.594605663130000e-4
2.638956825880001e-4 2.684066109850000e-4 2.729946474080000e-4 2.776611099100000e-4
2.824073390770000e-4 2.872346984070001e-4 2.921445747070001e-4 2.971383784910000e-4
3.022175443810000e-4 3.073835315230000e-4 3.126378240059999e-4 3.179819312859999e-4
3.234173886210001e-4 3.289457575140000e-4 3.345686261580000e-4 3.402876098930001e-4
3.461043516740001e-4 3.520205225380000e-4 3.580378220870000e-4 3.641579789730000e-4
3.703827513989999e-4 3.767139276230000e-4 3.831533264690000e-4 3.897027978510001e-4
3.963642233060000e-4 4.031395165320000e-4 4.100306239400001e-4 4.170395252120000e-4
4.241682338700000e-4 4.314187978530000e-4 4.387933001080000e-4 4.462938591870000e-4
4.539226298560000e-4 4.616818037129999e-4 4.695736098180000e-4 4.776003153350000e-4
4.857642261800000e-4 4.940676876880000e-4 5.025130852810000e-4 5.111028451599999e-4
5.198394349959999e-4 5.287253646420000e-4 5.377631868539999e-4 5.469554980240000e-4
5.563049389240000e-4 5.658141954680000e-4 5.754859994819999e-4 5.853231294870000e-4
5.953284115010000e-4 6.055047198470000e-4 6.158549779820000e-4 6.263821593349999e-4
6.370892881620000e-4 6.479794404120000e-4 6.590557446169999e-4 6.703213827840000e-4
6.817795913129999e-4 6.934336619260001e-4 7.052869426109999e-4 7.173428385870000e-4
7.296048132790000e-4 7.420763893159999e-4 7.547611495390000e-4 7.676627380360000e-4
7.807848611820001e-4 7.941312887100000e-4 8.077058547900000e-4 8.215124591330001e-4
8.355550681080000e-4 8.498377158850001e-4 8.643645055930001e-4 8.791396104970000e-4
8.941672751989998e-4 9.094518168570001e-4 9.249976264230000e-4 9.408091699070001e-4
9.568909896610000e-4 9.732477056790000e-4 9.898840169300000e-4 1.006804702700000e-3
1.024014623990000e-3 1.041518724850000e-3 1.059322033900000e-3 1.077429665660000e-3
1.095846822120000e-3 1.114578794170000e-3 1.133630963130000e-3 1.153008802340000e-3
1.172717878660000e-3 1.192763854130000e-3 1.213152487580000e-3 1.233889636270000e-3
1.254981257560000e-3 1.276433410690000e-3 1.298252258440000e-3 1.320444068940000e-3
1.343015217470000e-3 1.365972188280000e-3 1.389321576470000e-3 1.413070089870000e-3
1.437224550950000e-3 1.461791898840000e-3 1.486779191250000e-3 1.512193606560000e-3
1.538042445830000e-3 1.564333134920000e-3 1.591073226660000e-3 1.618270402950000e-3
1.645932477010000e-3 1.674067395610000e-3 1.702683241390000e-3 1.731788235120000e-3
1.761390738090000e-3 1.791499254530000e-3 1.822122434050000e-3 1.853269074080000e-3
1.884948122460000e-3 1.917168679950000e-3 1.949940002910000e-3 1.983271505890000e-3
2.017172764410000e-3 2.051653517620000e-3 2.086723671190000e-3 2.122393300090000e-3
2.158672651510000e-3 2.195572147820000e-3 2.233102389510000e-3 2.271274158310000e-3
2.310098420230000e-3 2.349586328720000e-3 2.389749227890000e-3 2.430598655780000e-3
2.472146347620000e-3 2.514404239270001e-3 2.557384470610000e-3 2.601099389010000e-3
2.645561552940000e-3 2.690783735500000e-3 2.736778928170000e-3 2.783560344460000e-3
2.831141423770000e-3 2.879535835230000e-3 2.928757481620000e-3 2.978820503350001e-3
3.029739282570000e-3 3.081528447260000e-3 3.134202875450000e-3 3.187777699470000e-3
3.242268310330000e-3 3.297690362140000e-3 3.354059776580000e-3 3.411392747490000e-3
3.469705745530000e-3 3.529015522880000e-3 3.589339118099999e-3 3.650693860990000e-3
3.713097377590000e-3 3.776567595210000e-3 3.841122747620000e-3 3.906781380270000e-3
3.973562355609999e-3 4.041484858520000e-3 4.110568401820000e-3 4.180832831890000e-3
4.252298334320001e-3 4.324985439780000e-3 4.398915029869999e-3 4.474108343120001e-3
4.550586981120000e-3 4.628372914700001e-3 4.707488490249999e-3 4.787956436160000e-3
4.869799869300000e-3 4.953042301710001e-3 5.037707647320000e-3 5.123820228860000e-3
5.211404784800000e-3 5.300486476490001e-3 5.391090895370000e-3 5.483244070350000e-3
5.576972475240000e-3 5.672303036410000e-3 5.769263140470001e-3 5.867880642190000e-3
5.968183872479999e-3 6.070201646499999e-3 6.173963271990001e-3 6.279498557660000e-3
6.386837821749999e-3 6.496011900760000e-3 6.607052158280000e-3 6.719990494030002e-3
6.834859353020000e-3 6.951691734830000e-3 7.070521203169999e-3 7.191381895420000e-3
7.314308532530001e-3 7.439336428950000e-3 7.566501502760001e-3 7.695840286040000e-3
7.827389935310000e-3 7.961188242240000e-3 8.097273644500000e-3 8.235685236790001e-3
8.376462782079999e-3 8.519646723030000e-3 8.665278193630000e-3 8.813399030970002e-3
8.964051787300001e-3 9.117279742250000e-3 9.273126915250000e-3 9.431638078159999e-3
9.592858768190000e-3 9.756835300900001e-3 9.923614783600000e-3 1.009324512880000e-2
1.026577506800000e-2 1.044125416570000e-2 1.061973283370000e-2 1.080126234550000e-2
1.098589485090000e-2 1.117368339130000e-2 1.136468191470000e-2 1.155894529140000e-2
1.175652932930000e-2 1.195749079060000e-2 1.216188740760000e-2 1.236977789960000e-2
1.258122198940000e-2 1.279628042070000e-2 1.301501497590000e-2 1.323748849290000e-2
1.346376488430000e-2 1.369390915480000e-2 1.392798742040000e-2 1.416606692730000e-2
1.440821607100000e-2 1.465450441650000e-2 1.490500271740000e-2 1.515978293730000e-2
1.541891826940000e-2 1.568248315830000e-2 1.595055332120000e-2 1.622320576950000e-2
1.650051883080000e-2 1.678257217180000e-2 1.706944682110000e-2 1.736122519220000e-2
1.765799110730000e-2 1.795982982150000e-2 1.826682804730000e-2 1.857907397940000e-2
1.889665731980000e-2 1.921966930430000e-2 1.954820272780000e-2 1.988235197170000e-2
2.022221303060000e-2 2.056788354000000e-2 2.091946280430000e-2 2.127705182540000e-2
2.164075333180000e-2 2.201067180790000e-2 2.238691352410000e-2 2.276958656730000e-2
2.315880087210000e-2 2.355466825230000e-2 2.395730243280000e-2 2.436681908280000e-2
2.478333584830000e-2 2.520697238670000e-2 2.563785040050000e-2 2.607609367250000e-2
2.652182810170000e-2 2.697518173890000e-2 2.743628482380000e-2 2.790526982240000e-2
2.838227146500000e-2 2.886742678510000e-2 2.936087515820000e-2 2.986275834260000e-2
3.037322051960000e-2 3.089240833510000e-2 3.142047094170000e-2 3.195756004160000e-2
3.250382993010001e-2 3.305943754000000e-2 3.362454248650000e-2 3.419930711350000e-2
3.478389653960000e-2 3.537847870600000e-2 3.598322442480000e-2 3.659830742770000e-2
3.722390441610000e-2 3.786019511190000e-2 3.850736230910000e-2 3.916559192640000e-2