<UPF version="2.0.1">
<PP_INFO>
Generated by new atomic code, or converted to UPF format
Author:
Generation date:
Pseudopotential type: US
Element: Sb
Functional:  SLA  PW   GGX  GGC
Suggested minimum cutoff for wavefunctions:   0. Ry
Suggested minimum cutoff for charge density:   0. Ry
The Pseudo was generated with a Scalar-Relativistic Calculation
L component and cutoff radius for Local Potential:  0   0.0000
Valence configuration:
nl pn  l   occ       Rcut    Rcut US       E pseu
4D  0  2 10.00     10.000      2.600     0.000000
5S  0  0  2.00     10.000      2.200     0.000000
5P  0  1  3.00     10.000      2.600     0.000000
Generation configuration: not available.
</PP_INFO>
<!--
END OF HUMAN READABLE SECTION
-->
<PP_HEADER generated="Generated by new atomic code, or converted to UPF format" author="" date="" comment="" element="Sb" pseudo_type="US" relativistic="scalar" is_ultrasoft="true" is_paw="false" is_coulomb="false" has_so="false" has_wfc="false" has_gipaw="false" paw_as_gipaw="false" core_correction="true" functional=" SLA  PW   GGX  GGC" z_valence="1.500000000000e1" total_psenergy="-1.954039460100e2" wfc_cutoff="0.000000000000e0" rho_cutoff="0.000000000000e0" l_max="2" l_max_rho="0" l_local="0" mesh_size="891" number_of_wfc="3" number_of_proj="6"/>
<PP_MESH mesh="891" rmax="2.040110924370e2" zmesh="5.100000000000e1">
<PP_R>
0.000000000000000e0 1.121970811030000e-9 2.272344448370000e-9 3.451839932990000e-9
4.661194487950000e-9 5.901163999229999e-9 7.172523488140000e-9 8.476067595740000e-9
9.812611079529999e-9 1.118298932270000e-8 1.258805885630000e-8 1.402869789440000e-8
1.550580688340000e-8 1.702030906460000e-8 1.857315105090000e-8 2.016530341930000e-8
2.179776131680000e-8 2.347154508280000e-8 2.518770088650000e-8 2.694730138120000e-8
2.875144637450001e-8 3.060126351569999e-8 3.249790900080001e-8 3.444256829500000e-8
3.643645687360000e-8 3.848082098190000e-8 4.057693841400000e-8 4.272611931150000e-8
4.492970698240001e-8 4.718907874080000e-8 4.950564676760000e-8 5.188085899320001e-8
5.431620000260001e-8 5.681319196310000e-8 5.937339557600001e-8 6.199841105200000e-8
6.468987911120000e-8 6.744948200860000e-8 7.027894458600001e-8 7.318003534950000e-8
7.615456757540001e-8 7.920440044310000e-8 8.233144019740001e-8 8.553764133999998e-8
8.882500785089999e-8 9.219559444129999e-8 9.565150783740000e-8 9.919490809770002e-8
1.028280099630000e-7 1.065530842390000e-7 1.103724592200000e-7 1.142885221390000e-7
1.183037206620000e-7 1.224205644200000e-7 1.266416265740000e-7 1.309695454260000e-7
1.354070260640000e-7 1.399568420600000e-7 1.446218371960000e-7 1.494049272460000e-7
1.543091017970000e-7 1.593374261180000e-7 1.644930430750000e-7 1.697791750970000e-7
1.751991261880000e-7 1.807562839950000e-7 1.864541219210000e-7 1.922962013000000e-7
1.982861736240000e-7 2.044277828180000e-7 2.107248675900000e-7 2.171813638210000e-7
2.238013070330000e-7 2.305888349050000e-7 2.375481898640000e-7 2.446837217310000e-7
2.519998904490000e-7 2.595012688580000e-7 2.671925455669999e-7 2.750785278720000e-7
2.831641447700000e-7 2.914544500340000e-7 2.999546253749999e-7 3.086699836790000e-7
3.176059723290000e-7 3.267681766090000e-7 3.361623231950000e-7 3.457942837330001e-7
3.556700785139999e-7 3.657958802290000e-7 3.761780178350000e-7 3.868229805070000e-7
3.977374216909999e-7 4.089281632690001e-7 4.204021998190001e-7 4.321667029870000e-7
4.442290259709999e-7 4.565967081149999e-7 4.692774796229999e-7 4.822792663900000e-7
4.956101949559999e-7 5.092785975859999e-7 5.232930174749999e-7 5.376622140929999e-7
5.523951686550000e-7 5.675010897380000e-7 5.829894190330000e-7 5.988698372520000e-7
6.151522701710000e-7 6.318468948430001e-7 6.489641459500000e-7 6.665147223309998e-7
6.845095936699998e-7 7.029600073439999e-7 7.218774954649999e-7 7.412738820780000e-7
7.611612905550000e-7 7.815521511749999e-7 8.024592088890001e-7 8.238955312890001e-7
8.458745167749999e-7 8.684099029260000e-7 8.915157750950000e-7 9.152065752019997e-7
9.394971107690001e-7 9.644025641709998e-7 9.899385021280001e-7 1.016120885430000e-6
1.042966078930000e-6 1.070490861730000e-6 1.098712437720000e-6 1.127648446320000e-6
1.157316973460000e-6 1.187736562930000e-6 1.218926227990000e-6 1.250905463170000e-6
1.283694256550000e-6 1.317313102180000e-6 1.351783012940000e-6 1.387125533650000e-6
1.423362754520000e-6 1.460517325020000e-6 1.498612467940000e-6 1.537671993990000e-6
1.577720316660000e-6 1.618782467440000e-6 1.660884111520000e-6 1.704051563790000e-6
1.748311805320000e-6 1.793692500190000e-6 1.840222012829999e-6 1.887929425690000e-6
1.936844557450000e-6 1.986997981670000e-6 2.038421045870000e-6 2.091145891140000e-6
2.145205472220000e-6 2.200633578110000e-6 2.257464853180000e-6 2.315734818830000e-6
2.375479895680000e-6 2.436737426350000e-6 2.499545698800000e-6 2.563943970230000e-6
2.629972491670001e-6 2.697672533080000e-6 2.767086409199999e-6 2.838257505960000e-6
2.911230307620000e-6 2.986050424539999e-6 3.062764621740000e-6 3.141420848090001e-6
3.222068266289999e-6 3.304757283600001e-6 3.389539583349999e-6 3.476468157230000e-6
3.565597338439999e-6 3.656982835620001e-6 3.750681767670000e-6 3.846752699480000e-6
3.945255678499999e-6 4.046252272320000e-6 4.149805607069999e-6 4.255980406979999e-6
4.364843034740000e-6 4.476461533050000e-6 4.590905667090000e-6 4.708246968180000e-6
4.828558778449999e-6 4.951916296699999e-6 5.078396625389999e-6 5.208078818840001e-6
5.341043932650002e-6 5.477375074340001e-6 5.617157455320000e-6 5.760478444120000e-6
5.907427621019999e-6 6.058096834040001e-6 6.212580256360000e-6 6.370974445130000e-6
6.533378401870000e-6 6.699893634360000e-6 6.870624220020000e-6 7.045676871040001e-6
7.225161001019998e-6 7.409188793379999e-6 7.597875271490001e-6 7.791338370520000e-6
7.989699011229999e-6 8.193081175469999e-6 8.401611983699999e-6 8.615421774479998e-6
8.834644185880000e-6 9.059416239050000e-6 9.289878423830000e-6 9.526174786600000e-6
9.768453020269996e-6 1.001686455660000e-5 1.027156466100000e-5 1.053271252910000e-5
1.080047138710000e-5 1.107500859280000e-5 1.135649574090000e-5 1.164510877010000e-5
1.194102807300000e-5 1.224443860870000e-5 1.255553001860000e-5 1.287449674510000e-5
1.320153815270000e-5 1.353685865290000e-5 1.388066783210000e-5 1.423318058200000e-5
1.459461723470000e-5 1.496520369980000e-5 1.534517160600000e-5 1.573475844540000e-5
1.613420772270000e-5 1.654376910660000e-5 1.696369858630000e-5 1.739425863130000e-5
1.783571835580000e-5 1.828835368650000e-5 1.875244753500000e-5 1.922828997530000e-5
1.971617842430000e-5 2.021641782820000e-5 2.072932085300000e-5 2.125520807950000e-5
2.179440820470000e-5 2.234725824590000e-5 2.291410375260000e-5 2.349529902160000e-5
2.409120731900000e-5 2.470220110660000e-5 2.532866227570000e-5 2.597098238470000e-5
2.662956290470000e-5 2.730481547000000e-5 2.799716213530000e-5 2.870703563990000e-5
2.943487967790000e-5 3.018114917530000e-5 3.094631057510000e-5 3.173084212790001e-5
3.253523419150000e-5 3.335998953720000e-5 3.420562366380000e-5 3.507266512030000e-5
3.596165583570000e-5 3.687315145830000e-5 3.780772170240000e-5 3.876595070480000e-5
3.974843739000000e-5 4.075579584400000e-5 4.178865569859999e-5 4.284766252500000e-5
4.393347823679999e-5 4.504678150430000e-5 4.618826817810000e-5 4.735865172470000e-5
4.855866367180001e-5 4.978905406590000e-5 5.105059194120001e-5 5.234406579990001e-5
5.367028410510001e-5 5.503007578660000e-5 5.642429075849998e-5 5.785380045029999e-5
5.931949835230000e-5 6.082230057340000e-5 6.236314641380001e-5 6.394299895229999e-5
6.556284564829999e-5 6.722369895860001e-5 6.892659697070000e-5 7.067260405120001e-5
7.246281151130001e-5 7.429833828910002e-5 7.618033164840000e-5 7.810996789650000e-5
8.008845311880000e-5 8.211702393289999e-5 8.419694826170000e-5 8.632952612550000e-5
8.851609045500000e-5 9.075800792400001e-5 9.305667980399999e-5 9.541354283970001e-5
9.783007014710000e-5 1.003077721350000e-4 1.028481974470000e-4 1.054529339310000e-4
1.081236096340000e-4 1.108618938150000e-4 1.136694979890000e-4 1.165481770010000e-4
1.194997301200000e-4 1.225260021610000e-4 1.256288846440000e-4 1.288103169710000e-4
1.320722876410000e-4 1.354168354910000e-4 1.388460509730000e-4 1.423620774590000e-4
1.459671125790000e-4 1.496634095970000e-4 1.534532788200000e-4 1.573390890390000e-4
1.613232690120000e-4 1.654083089810000e-4 1.695967622300000e-4 1.738912466770000e-4
1.782944465150000e-4 1.828091138890000e-4 1.874380706110000e-4 1.921842099300000e-4
1.970504983380000e-4 2.020399774230000e-4 2.071557657730000e-4 2.124010609220000e-4
2.177791413500000e-4 2.232933685310000e-4 2.289471890390000e-4 2.347441366940000e-4
2.406878347780000e-4 2.467819982950000e-4 2.530304362960000e-4 2.594370542580000e-4
2.660058565250000e-4 2.727409488140000e-4 2.796465407760000e-4 2.867269486310000e-4
2.939865978640000e-4 3.014300259920000e-4 3.090618854010000e-4 3.168869462500000e-4
3.249100994580000e-4 3.331363597560000e-4 3.415708688250000e-4 3.502188985080000e-4
3.590858541040001e-4 3.681772777510000e-4 3.774988518820000e-4 3.870564027860000e-4
3.968559042430000e-4 4.069034812610000e-4 4.172054139009999e-4 4.277681412090000e-4
4.385982652310000e-4 4.497025551469999e-4 4.610879515020001e-4 4.727615705370000e-4
4.847307086460001e-4 4.970028469280000e-4 5.095856558700000e-4 5.224870001360000e-4
5.357149434880000e-4 5.492777538200001e-4 5.631839083299999e-4 5.774420988179999e-4
5.920612371160000e-4 6.070504606620000e-4 6.224191382090001e-4 6.381768756800001e-4
6.543335221750000e-4 6.708991761229999e-4 6.878841915970001e-4 7.052991847850000e-4
7.231550406240000e-4 7.414629196059998e-4 7.602342647510001e-4 7.794808087610000e-4
7.992145813520001e-4 8.194479167750000e-4 8.401934615220000e-4 8.614641822350000e-4
8.832733738070001e-4 9.056346676920001e-4 9.285620404259999e-4 9.520698223650001e-4
9.761727066359999e-4 1.000885758330000e-3 1.026224423900000e-3 1.052204540850000e-3
1.078842347590000e-3 1.106154493620000e-3 1.134158049910000e-3 1.162870519610000e-3
1.192309848940000e-3 1.222494438440000e-3 1.253443154460000e-3 1.285175340950000e-3
1.317710831580000e-3 1.351069962060000e-3 1.385273582960000e-3 1.420343072640000e-3
1.456300350680000e-3 1.493167891550000e-3 1.530968738660000e-3 1.569726518770000e-3
1.609465456750000e-3 1.650210390740000e-3 1.691986787650000e-3 1.734820759070000e-3
1.778739077650000e-3 1.823769193750000e-3 1.869939252670000e-3 1.917278112190000e-3
1.965815360650000e-3 2.015581335410000e-3 2.066607141810000e-3 2.118924672660000e-3
2.172566628100000e-3 2.227566536110000e-3 2.283958773410000e-3 2.341778587010000e-3
2.401062116150000e-3 2.461846414980000e-3 2.524169475650000e-3 2.588070252130001e-3
2.653588684460000e-3 2.720765723800000e-3 2.789643357979999e-3 2.860264637780000e-3
2.932673703790000e-3 3.006915814030000e-3 3.083037372240000e-3 3.161085956870000e-3
3.241110350830001e-3 3.323160571960000e-3 3.407287904330000e-3 3.493544930260000e-3
3.581985563200000e-3 3.672665081420000e-3 3.765640162580000e-3 3.860968919110000e-3
3.958710934610000e-3 4.058927301010000e-3 4.161680656810000e-3 4.267035226190000e-3
4.375056859199999e-3 4.485813072860000e-3 4.599373093420001e-3 4.715807899590001e-3
4.835190266910000e-3 4.957594813239999e-3 5.083098045419999e-3 5.211778407050000e-3
5.343716327540000e-3 5.478994272390000e-3 5.617696794720000e-3 5.759910588119999e-3
5.905724540840000e-3 6.055229791350001e-3 6.208519785290000e-3 6.365690333899999e-3
6.526839673899999e-3 6.692068528849999e-3 6.861480172189999e-3 7.035180491700000e-3
7.213278055729999e-3 7.395884181050000e-3 7.583113002449999e-3 7.775081544030000e-3
7.971909792380000e-3 8.173720771549998e-3 8.380640619990000e-3 8.592798669320000e-3
8.810327525250001e-3 9.033363150380001e-3 9.262044949250001e-3 9.496515855410001e-3
9.736922420820001e-3 9.983414907410001e-3 1.023614738100000e-2 1.049527780760000e-2
1.076096815220000e-2 1.103338448000000e-2 1.131269705980000e-2 1.159908047130000e-2
1.189271371340000e-2 1.219378031640000e-2 1.250246845670000e-2 1.281897107450000e-2
1.314348599420000e-2 1.347621604830000e-2 1.381736920370000e-2 1.416715869240000e-2
1.452580314420000e-2 1.489352672340000e-2 1.527055926950000e-2 1.565713643980000e-2
1.605349985780000e-2 1.645989726350000e-2 1.687658266850000e-2 1.730381651480000e-2
1.774186583740000e-2 1.819100443140000e-2 1.865151302300000e-2 1.912367944510000e-2
1.960779881710000e-2 2.010417372930000e-2 2.061311443230000e-2 2.113493903050000e-2
2.166997368130000e-2 2.221855279880000e-2 2.278101926270000e-2 2.335772463300000e-2
2.394902936920000e-2 2.455530305610000e-2 2.517692463450000e-2 2.581428263800000e-2
2.646777543620000e-2 2.713781148340000e-2 2.782480957380000e-2 2.852919910370000e-2
2.925142033940000e-2 2.999192469280000e-2 3.075117500320000e-2 3.152964582660000e-2
3.232782373280000e-2 3.314620760880000e-2 3.398530897130000e-2 3.484565228600000e-2
3.572777529530000e-2 3.663222935499999e-2 3.755957977810000e-2 3.851040618900000e-2
3.948530288510000e-2 4.048487920860000e-2 4.150975992710000e-2 4.256058562460000e-2
4.363801310120000e-2 4.474271578430001e-2 4.587538414900000e-2 4.703672614980000e-2
4.822746766330000e-2 4.944835294170000e-2 5.070014507820000e-2 5.198362648340000e-2
5.329959937510001e-2 5.464888627910001e-2 5.603233054380000e-2 5.745079686680000e-2
5.890517183560000e-2 6.039636448210000e-2 6.192530685020000e-2 6.349295457860000e-2
6.510028749820000e-2 6.674831024430000e-2 6.843805288490000e-2 7.017057156419999e-2
7.194694916250000e-2 7.376829597390000e-2 7.563575039940000e-2 7.755047965870000e-2
7.951368051990000e-2 8.152658004759999e-2 8.359043636940001e-2 8.570653946280000e-2
8.787621196100000e-2 9.010080997990000e-2 9.238172396590000e-2 9.472037956430000e-2
9.711823851110001e-2 9.957679954610001e-2 1.020975993500000e-1 1.046822135050000e-1
1.073322574780000e-1 1.100493876350000e-1 1.128353022680000e-1 1.156917426660000e-1
1.186204941980000e-1 1.216233874270000e-1 1.247022992600000e-1 1.278591541180000e-1
1.310959251360000e-1 1.344146354030000e-1 1.378173592210000e-1 1.413062234020000e-1
1.448834086000000e-1 1.485511506730000e-1 1.523117420780000e-1 1.561675333080000e-1
1.601209343580000e-1 1.641744162310000e-1 1.683305124870000e-1 1.725918208210000e-1
1.769610046880000e-1 1.814407949720000e-1 1.860339916870000e-1 1.907434657300000e-1
1.955721606760000e-1 2.005230946170000e-1 2.055993620470000e-1 2.108041357990000e-1
2.161406690260000e-1 2.216122972340000e-1 2.272224403700000e-1 2.329746049560000e-1
2.388723862820000e-1 2.449194706520000e-1 2.511196376930000e-1 2.574767627090000e-1
2.639948191110000e-1 2.706778808970000e-1 2.775301251970000e-1 2.845558348870000e-1
2.917594012660000e-1 2.991453267950000e-1 3.067182279190000e-1 3.144828379480000e-1
3.224440100150000e-1 3.306067201130000e-1 3.389760702010000e-1 3.475572913950000e-1
3.563557472380000e-1 3.653769370500000e-1 3.746264993710000e-1 3.841102154760000e-1
3.938340129970000e-1 4.038039696249999e-1 4.140263169060000e-1 4.245074441410000e-1
4.352539023750000e-1 4.462724084940001e-1 4.575698494240000e-1 4.691532864320000e-1
4.810299595450000e-1 4.932072920680000e-1 5.056928952330000e-1 5.184945729460000e-1
5.316203266730000e-1 5.450783604380000e-1 5.588770859499999e-1 5.730251278610000e-1
5.875313291579999e-1 6.024047566900000e-1 6.176547068320000e-1 6.332907113000000e-1
6.493225431050000e-1 6.657602226650000e-1 6.826140240639999e-1 6.998944814770000e-1
7.176123957520000e-1 7.357788411620000e-1 7.544051723280000e-1 7.735030313109999e-1
7.930843548970000e-1 8.131613820489999e-1 8.337466615629999e-1 8.548530599100001e-1
8.764937692740000e-1 8.986823158040000e-1 9.214325680640000e-1 9.447587457010000e-1
9.686754283370000e-1 9.931975646770001e-1 1.018340481850000e0 1.044119895010000e0
1.070551917110000e0 1.097653069050000e0 1.125440289900000e0 1.153930947610000e0
1.183142849750000e0 1.213094254710000e0 1.243803883090000e0 1.275290929430000e0
1.307575074130000e0 1.340676495850000e0 1.374615884050000e0 1.409414451950000e0
1.445093949790000e0 1.481676678420000e0 1.519185503230000e0 1.557643868470000e0
1.597075811860000e0 1.637505979640000e0 1.678959642000000e0 1.721462708810000e0
1.765041745890000e0 1.809723991540000e0 1.855537373620000e0 1.902510526990000e0
1.950672811400000e0 2.000054329850000e0 2.050685947390000e0 2.102599310430000e0
2.155826866510000e0 2.210401884580000e0 2.266358475820000e0 2.323731614910000e0
2.382557161930000e0 2.442871884760000e0 2.504713482070000e0 2.568120606870000e0
2.633132890680000e0 2.699790968280000e0 2.768136503160000e0 2.838212213490000e0
2.910061898870000e0 2.983730467690000e0 3.059263965220000e0 3.136709602330000e0
3.216115785090000e0 3.297532144930000e0 3.381009569740000e0 3.466600235610000e0
3.554357639510000e0 3.644336632660000e0 3.736593454870000e0 3.831185769650000e0
3.928172700280000e0 4.027614866750000e0 4.129574423650000e0 4.234115099030000e0
4.341302234190000e0 4.451202824610000e0 4.563885561710000e0 4.679420875890000e0
4.797880980470000e0 4.919339916870000e0 5.043873600890000e0 5.171559870130000e0
5.302478532660000e0 5.436711416920000e0 5.574342422820000e0 5.715457574220000e0
5.860145072680000e0 6.008495352610000e0 6.160601137750000e0 6.316557499180000e0
6.476461914690000e0 6.640414329760000e0 6.808517219970000e0 6.980875655110000e0
7.157597364800000e0 7.338792805880000e0 7.524575231390000e0 7.715060761390000e0
7.910368455540000e0 8.110620387499999e0 8.315941721260000e0 8.526460789330001e0
8.742309172980001e0 8.963621784480001e0 9.190536951409999e0 9.423196503140000e0
9.661745859470001e0 9.906334121500000e0 1.015711416490000e1 1.041424273520000e1
1.067788054640000e1 1.094819238050000e1 1.122534719120000e1 1.150951820940000e1
1.180088305120000e1 1.209962382910000e1 1.240592726570000e1 1.271998481080000e1
1.304199276050000e1 1.337215238020000e1 1.371067003050000e1 1.405775729590000e1
1.441363111730000e1 1.477851392730000e1 1.515263378970000e1 1.553622454150000e1
1.592952593940000e1 1.633278380950000e1 1.674625020130000e1 1.717018354460000e1
1.760484881160000e1 1.805051768220000e1 1.850746871390000e1 1.897598751620000e1
1.945636692830000e1 1.994890720320000e1 2.045391619450000e1 2.097170954930000e1
2.150261090530000e1 2.204695209300000e1 2.260507334360000e1 2.317732350090000e1
2.376406023980000e1 2.436565029010000e1 2.498246966500000e1 2.561490389670000e1
2.626334827710000e1 2.692820810530000e1 2.760989894010000e1 2.830884686050000e1
2.902548873180000e1 2.976027247850000e1 3.051365736430000e1 3.128611427920000e1
3.207812603400000e1 3.289018766190000e1 3.372280672780000e1 3.457650364560000e1
3.545181200380000e1 3.634927889860000e1 3.726946527610000e1 3.821294628250000e1
3.918031162440000e1 4.017216593650001e1 4.118912916000000e1 4.223183693010000e1
4.330094097310000e1 4.439710951379999e1 4.552102769320000e1 4.667339799670000e1
4.785494069340000e1 4.906639428590001e1 5.030851597200001e1 5.158208211840001e1
5.288788874530001e1 5.422675202420001e1 5.559950878850000e1 5.700701705570000e1
5.845015656430000e1 5.992982932360000e1 6.144696017700000e1 6.300249738090001e1
6.459741319650000e1 6.623270449830000e1 6.790939339650000e1 6.962852787610000e1
7.139118245240001e1 7.319845884170000e1 7.505148665060000e1 7.695142408180001e1
7.889945865810001e1 8.089680796440000e1 8.294472040920001e1 8.504447600440001e1
8.719738716550001e1 8.940479953210000e1 9.166809280890000e1 9.398868162770000e1
9.636801643210001e1 9.880758438390000e1 1.013089102920000e2 1.038735575680000e2
1.065031291980000e2 1.091992687510000e2 1.119636614020000e2 1.147980349860000e2
1.177041610780000e2 1.206838561030000e2 1.237389824670000e2 1.268714497230000e2
1.300832157650000e2 1.333762880510000e2 1.367527248600000e2 1.402146365730000e2
1.437641869980000e2 1.474035947200000e2 1.511351344870000e2 1.549611386330000e2
1.588839985360000e2 1.629061661090000e2 1.670301553390000e2 1.712585438540000e2
1.755939745340000e2 1.800391571640000e2 1.845968701270000e2 1.892699621440000e2
1.940613540490000e2 1.989740406170000e2 2.040110924370000e2
</PP_R>
<PP_RAB>
1.108004611270000e-9 1.136053881540000e-9 1.164813222470000e-9 1.194300609590000e-9
1.224534473460000e-9 1.255533711250000e-9 1.287317698470000e-9 1.319906301160000e-9
1.353319888250000e-9 1.387579344330000e-9 1.422706082670000e-9 1.458722058630000e-9
1.495649783350000e-9 1.533512337880000e-9 1.572333387540000e-9 1.612137196750000e-9
1.652948644190000e-9 1.694793238330000e-9 1.737697133430000e-9 1.781687145789999e-9
1.826790770630000e-9 1.873036199160000e-9 1.920452336290000e-9 1.969068818640000e-9
2.018916033110000e-9 2.070025135810000e-9 2.122428071610000e-9 2.176157594050000e-9
2.231247285830000e-9 2.287731579790000e-9 2.345645780460000e-9 2.405026086100000e-9
2.465909611329999e-9 2.528334410339999e-9 2.592339500670000e-9 2.657964887569999e-9
2.725251589040000e-9 2.794241661479999e-9 2.864978225910000e-9 2.937505495000000e-9
3.011868800650000e-9 3.088114622340000e-9 3.166290616200000e-9 3.246445644770001e-9
3.328629807540001e-9 3.412894472300000e-9 3.499292307200000e-9 3.587877313710000e-9
3.678704860330000e-9 3.771831717239999e-9 3.867316091759999e-9 3.965217664730000e-9
4.065597627820000e-9 4.168518721770001e-9 4.274045275620001e-9 4.382243246899998e-9
4.493180262870000e-9 4.606925662760000e-9 4.723550541159999e-9 4.843127792410000e-9
4.965732156190001e-9 5.091440264219999e-9 5.220330688150000e-9 5.352483988700001e-9
5.487982765980001e-9 5.626911711130001e-9 5.769357659280000e-9 5.915409643769999e-9
6.065158951860000e-9 6.218699181720000e-9 6.376126301010001e-9 6.537538706800001e-9
6.703037287099999e-9 6.872725483900001e-9 7.046709357860001e-9 7.225097654549999e-9
7.408001872479999e-9 7.595536332720000e-9 7.787818250440002e-9 7.984967808070000e-9
8.187108230509999e-9 8.394365862109998e-9 8.606870245640000e-9 8.824754203249999e-9
9.048153919500001e-9 9.277209026500000e-9 9.512062691129998e-9 9.752861704590000e-9
9.999756574099996e-9 1.025290161700000e-8 1.051245505720000e-8 1.077857912390000e-8
1.105144015350000e-8 1.133120869300000e-8 1.161805960670000e-8 1.191217218590000e-8
1.221373026050000e-8 1.252292231410000e-8 1.283994160180000e-8 1.316498627100000e-8
1.349825948520000e-8 1.383996955090000e-8 1.419033004810000e-8 1.454955996360000e-8
1.491788382760000e-8 1.529553185470000e-8 1.568274008710000e-8 1.607975054260000e-8
1.648681136550000e-8 1.690417698230000e-8 1.733210826000000e-8 1.777087266950000e-8
1.822074445300000e-8 1.868200479490000e-8 1.915494199790000e-8 1.963985166320000e-8
2.013703687510001e-8 2.064680839060000e-8 2.116948483350000e-8 2.170539289350000e-8
2.225486753059999e-8 2.281825218440000e-8 2.339589898860000e-8 2.398816899129999e-8
2.459543238050000e-8 2.521806871550000e-8 2.585646716449999e-8 2.651102674710000e-8
2.718215658440000e-8 2.787027615440000e-8 2.857581555430000e-8 2.929921576920000e-8
3.004092894770001e-8 3.080141868460001e-8 3.158116031100000e-8 3.238064119049999e-8
3.320036102490001e-8 3.404083216570000e-8 3.490257993480000e-8 3.578614295240000e-8
3.669207347440001e-8 3.762093773670000e-8 3.857331630970000e-8 3.954980446110000e-8
4.055101252780000e-8 4.157756629730000e-8 4.263010739920000e-8 4.370929370599999e-8
4.481579974419999e-8 4.595031711610001e-8 4.711355493210000e-8 4.830624025350000e-8
4.952911854760000e-8 5.078295415309999e-8 5.206853075809999e-8 5.338665188969999e-8
5.473814141670001e-8 5.612384406400000e-8 5.754462594070000e-8 5.900137508199999e-8
6.049500200330000e-8 6.202644027009998e-8 6.359664708129999e-8 6.520660386710000e-8
6.685731690290000e-8 6.854981793830000e-8 7.028516484130000e-8 7.206444226039999e-8
7.388876230169998e-8 7.575926522480001e-8 7.767712015479999e-8 7.964352581350001e-8
8.165971126839999e-8 8.372693670120002e-8 8.584649419489999e-8 8.801970854210001e-8
9.024793807229997e-8 9.253257550170002e-8 9.487504880300001e-8 9.727682209819999e-8
9.973939657380001e-8 1.022643114190000e-7 1.048531447880000e-7 1.075075147860000e-7
1.102290804800000e-7 1.130195429370000e-7 1.158806462890000e-7 1.188141788160000e-7
1.218219740730000e-7 1.249059120290000e-7 1.280679202460000e-7 1.313099750820000e-7
1.346341029280000e-7 1.380423814700000e-7 1.415369409940000e-7 1.451199657140000e-7
1.487936951370000e-7 1.525604254620000e-7 1.564225110200000e-7 1.603823657390000e-7
1.644424646580000e-7 1.686053454700000e-7 1.728736101120000e-7 1.772499263870000e-7
1.817370296370000e-7 1.863377244460000e-7 1.910548863980000e-7 1.958914638740000e-7
2.008504798920000e-7 2.059350339980001e-7 2.111483042040001e-7 2.164935489729999e-7
2.219741092580000e-7 2.275934105870000e-7 2.333549652070000e-7 2.392623742760000e-7
2.453193301180000e-7 2.515296185270000e-7 2.578971211350000e-7 2.644258178399999e-7
2.711197892880000e-7 2.779832194310000e-7 2.850203981340000e-7 2.922357238650000e-7
2.996337064360000e-7 3.072189698279999e-7 3.149962550760000e-7 3.229704232380000e-7
3.311464584280000e-7 3.395294709350000e-7 3.481247004130000e-7 3.569375191619999e-7
3.659734354790000e-7 3.752380971070000e-7 3.847372947600000e-7 3.944769657470000e-7
4.044631976790000e-7 4.147022322760000e-7 4.252004692680000e-7 4.359644703950000e-7
4.470009635070000e-7 4.583168467730000e-7 4.699191929870000e-7 4.818152539940001e-7
4.940124652200001e-7 5.065184503169999e-7 5.193410259350001e-7 5.324882066000001e-7
5.459682097280001e-7 5.597894607600001e-7 5.739605984270000e-7 5.884904801530000e-7
6.033881875849999e-7 6.186630322769999e-7 6.343245615030000e-7 6.503825642290001e-7
6.668470772290000e-7 6.837283913609999e-7 7.010370579940001e-7 7.187838956089999e-7
7.369799965580000e-7 7.556367339950000e-7 7.747657689880000e-7 7.943790578080000e-7
8.144888593990000e-7 8.351077430399998e-7 8.562485962059998e-7 8.779246326179999e-7
9.001494005040001e-7 9.229367910679999e-7 9.463010471699999e-7 9.702567722320000e-7
9.948189393610001e-7 1.020002900710000e-6 1.045824397080000e-6 1.072299567740000e-6
1.099444960530000e-6 1.127277542220000e-6 1.155814709060000e-6 1.185074297730000e-6
1.215074596410000e-6 1.245834356260000e-6 1.277372803140000e-6 1.309709649610000e-6
1.342865107240000e-6 1.376859899280000e-6 1.411715273570000e-6 1.447453015870000e-6
1.484095463420000e-6 1.521665518950000e-6 1.560186664960000e-6 1.599682978420000e-6
1.640179145820000e-6 1.681700478580000e-6 1.724272928880000e-6 1.767923105890000e-6
1.812678292390000e-6 1.858566461840000e-6 1.905616295820000e-6 1.953857202020000e-6
2.003319332580000e-6 2.054033602930000e-6 2.106031711150000e-6 2.159346157750000e-6
2.214010265990000e-6 2.270058202710000e-6 2.327524999710000e-6 2.386446575600000e-6
2.446859758290000e-6 2.508802307980000e-6 2.572312940779999e-6 2.637431352900000e-6
2.704198245470000e-6 2.772655349980000e-6 2.842845454330000e-6 2.914812429640000e-6
2.988601257610000e-6 3.064258058640000e-6 3.141830120710000e-6 3.221365928890001e-6
3.302915195630000e-6 3.386528891889999e-6 3.472259278949999e-6 3.560159941089999e-6
3.650285819080000e-6 3.742693244539999e-6 3.837439975109999e-6 3.934585230590000e-6
4.034189729910001e-6 4.136315729140000e-6 4.241027060350000e-6 4.348389171529999e-6
4.458469167500001e-6 4.571335851830000e-6 4.687059769870000e-6 4.805713252850000e-6
4.927370463060000e-6 5.052107440200000e-6 5.180002148950001e-6 5.311134527660000e-6
5.445586538350000e-6 5.583442217900001e-6 5.724787730590000e-6 5.869711421960000e-6
6.018303874050001e-6 6.170657961980000e-6 6.326868912000000e-6 6.487034361049999e-6
6.651254417749999e-6 6.819631724970000e-6 6.992271524020000e-6 7.169281720389998e-6
7.350772951210000e-6 7.536858654420000e-6 7.727655139630000e-6 7.923281660870001e-6
8.123860491060000e-6 8.329516998510000e-6 8.540379725240001e-6 8.756580467309998e-6
8.978254357220001e-6 9.205539948370001e-6 9.438579301659999e-6 9.677518074260000e-6
9.922505610689999e-6 1.017369503610000e-5 1.043124335210000e-5 1.069531153480000e-5
1.096606463540000e-5 1.124367188330000e-5 1.152830679220000e-5 1.182014726800000e-5
1.211937572080000e-5 1.242617917780000e-5 1.274074940140000e-5 1.306328300800000e-5
1.339398159180000e-5 1.373305185010000e-5 1.408070571290000e-5 1.443716047510000e-5
1.480263893250000e-5 1.517736952120000e-5 1.556158645980000e-5 1.595552989660000e-5
1.635944605900000e-5 1.677358740770000e-5 1.719821279450001e-5 1.763358762420000e-5
1.807998402020000e-5 1.853768099480000e-5 1.900696462340000e-5 1.948812822360000e-5
1.998147253840000e-5 2.048730592400000e-5 2.100594454270000e-5 2.153771256050000e-5
2.208294234980000e-5 2.264197469690000e-5 2.321515901530000e-5 2.380285356370000e-5
2.440542567050000e-5 2.502325196280000e-5 2.565671860220000e-5 2.630622152580000e-5
2.697216669430000e-5 2.765497034500000e-5 2.835505925240000e-5 2.907287099480000e-5
2.980885422800000e-5 3.056346896550000e-5 3.133718686600000e-5 3.213049152840000e-5
3.294387879399999e-5 3.377785705620000e-5 3.463294757860000e-5 3.550968482070000e-5
3.640861677170000e-5 3.733030529340000e-5 3.827532647120000e-5 3.924427097390000e-5
4.023774442349999e-5 4.125636777320000e-5 4.230077769579999e-5 4.337162698140000e-5
4.446958494580000e-5 4.559533784839999e-5 4.674958932129999e-5 4.793306080950001e-5
4.914649202100000e-5 5.039064138980001e-5 5.166628654989999e-5 5.297422482100000e-5
5.431527370700000e-5 5.569027140720001e-5 5.710007733990000e-5 5.854557267980000e-5
6.002766090830001e-5 6.154726837900000e-5 6.310534489599999e-5 6.470286430780002e-5
6.634082511599999e-5 6.802025109950000e-5 6.974219195420001e-5 7.150772394910000e-5
7.331795059930001e-5 7.517400335540001e-5 7.707704231059999e-5 7.902825692640000e-5
8.102886677529998e-5 8.308012230370000e-5 8.518330561299997e-5 8.733973126120000e-5
8.955074708470001e-5 9.181773504019999e-5 9.414211206900001e-5 9.652533098240001e-5
9.896888136989999e-5 1.014742905300000e-4 1.040431244250000e-4 1.066769886590000e-4
1.093775294850000e-4 1.121464348260000e-4 1.149854353400000e-4 1.178963054940000e-4
1.208808646770000e-4 1.239409783360000e-4 1.270785591400000e-4 1.302955681810000e-4
1.335940161930000e-4 1.369759648140000e-4 1.404435278730000e-4 1.439988727080000e-4
1.476442215260000e-4 1.513818527880000e-4 1.552141026370000e-4 1.591433663520000e-4
1.631720998520000e-4 1.673028212260000e-4 1.715381123090000e-4 1.758806202970000e-4