
     Program BANDS v.7.4.1 starts on 29Jul2025 at  5:28:59 

     This program is part of the open-source Quantum ESPRESSO suite
     for quantum simulation of materials; please cite
         "P. Giannozzi et al., J. Phys.:Condens. Matter 21 395502 (2009);
         "P. Giannozzi et al., J. Phys.:Condens. Matter 29 465901 (2017);
         "P. Giannozzi et al., J. Chem. Phys. 152 154105 (2020);
          URL http://www.quantum-espresso.org", 
     in publications or presentations arising from this work. More details at
     http://www.quantum-espresso.org/quote

     Parallel version (MPI & OpenMP), running on      32 processor cores
     Number of MPI processes:                 1
     Threads/MPI process:                    32

     MPI processes distributed on     1 nodes
     2732 MiB available memory on the printing compute node when the environment starts


     Reading xml data from directory:

     ../out/BiSBr.save/
     file Bi.pbe-dn-kjpaw_psl.1.0.0.UPF: wavefunction(s)  6P 5D renormalized
     file S.pbe-n-kjpaw_psl.1.0.0.UPF: wavefunction(s)  3S 3P renormalized
     file Br.pbe-n-kjpaw_psl.1.0.0.UPF: wavefunction(s)  4S 4P renormalized

     IMPORTANT: XC functional enforced from input :
     Exchange-correlation= VDW-DF
                           (   1   4   4   0   1   0   0)
     Any further DFT definition will be discarded
     Please, verify this is what you really want


     G-vector sticks info
     --------------------
     sticks:   dense  smooth     PW     G-vecs:    dense   smooth      PW
     Sum        3933    1967    547               333903   118011   17125

     Using Slab Decomposition



     %%%%%%%%%%%%%%%%%%%%%%%%%%%%%%%%%%%%%%%%%%%%%%%%%%%%%%%%%%%%%%%%%%%%%%%%
     %                                                                      %
     % You are using vdW-DF, which was implemented by the Thonhauser group. %
     % Please cite the following two papers that made this development      %
     % possible and the two reviews that describe the various versions:     %
     %                                                                      %
     %   T. Thonhauser et al., PRL 115, 136402 (2015).                      %
     %   T. Thonhauser et al., PRB 76, 125112 (2007).                       %
     %   K. Berland et al., Rep. Prog. Phys. 78, 066501 (2015).             %
     %   D.C. Langreth et al., J. Phys.: Condens. Matter 21, 084203 (2009). %
     %                                                                      %
     % If you are calculating stress with vdW-DF, please also cite:         %
     %                                                                      %
     %   R. Sabatini et al., J. Phys.: Condens. Matter 24, 424209 (2012).   %
     %                                                                      %
     %%%%%%%%%%%%%%%%%%%%%%%%%%%%%%%%%%%%%%%%%%%%%%%%%%%%%%%%%%%%%%%%%%%%%%%%

     %%%%%%%%%%%%%%%%%%%%%%%%%%%%%%%%%%%%%%%%%%%%%%%%%%%%%%%%%%%%%%%%%%%%%%%%
     %                                                                      %
     %  vdW-DF NEWS:                                                        %
     %                                                                      %
     %  * vdW-DF3 is now available. DOI: 10.1021/acs.jctc.0c00471           %
     %    use with input_dft = 'vdW-DF3-opt1' or 'vdW-DF3-opt2'             %
     %                                                                      %
     %  * Unscreened and range-separated hybrid vdW-DF-cx functionals       %
     %    DOI: 10.1063/1.4986522 and 10.1088/1361-648X/ac2ad2               %
     %    use with input_dft = 'vdW-DF-cx0'    and 'vdW-DF-ahcx'            %
     %  * Unscreened and range-separated hybrid vdW-DF2-b86r functionals    %
     %    DOI: 10.1063/1.4986522 and DOI: 10.1103/PhysRevX.12.041003        %
     %    use with input_dft = 'vdW-DF2-br0' and 'vdW-DF2-ahbr'             %
     %                                                                      %
     %%%%%%%%%%%%%%%%%%%%%%%%%%%%%%%%%%%%%%%%%%%%%%%%%%%%%%%%%%%%%%%%%%%%%%%%


     Reading collected, re-writing distributed wavefunctions
     high-symmetry point:  0.1250 0.0604 0.0483   x coordinate   0.0000
     high-symmetry point:  0.1250 0.0604 0.1450   x coordinate   0.0966
     high-symmetry point:  0.1250 0.1811 0.0483   x coordinate   0.2513
     high-symmetry point:  0.1250 0.1811 0.1450   x coordinate   0.3479
     high-symmetry point:  0.3750 0.0604 0.0483   x coordinate   0.6419
     high-symmetry point:  0.3750 0.0604 0.1450   x coordinate   0.7385
     high-symmetry point:  0.3750 0.1811 0.0483   x coordinate   0.8931
     high-symmetry point:  0.3750 0.1811 0.1450   x coordinate   0.9898

     Plottable bands (eV) written to file BiSBr.band.gnu
     Bands written to file BiSBr.band

 **************************************************************************

                    xk=(   0.12500,   0.06036,   0.04832  )

     point group C_1 (1)    
     there are  1 classes
     the character table:

       E    
A      1.00

     the symmetry operations in each class and the name of the first element:

     E        1
                                                                 

     Band symmetry, C_1 (1)     point group:

     e(  1 -  1) =    -17.71041  eV     1   --> A              
     e(  2 -  2) =    -17.70962  eV     1   --> A              
     e(  3 -  3) =    -17.70293  eV     1   --> A              
     e(  4 -  4) =    -17.70263  eV     1   --> A              
     e(  5 -  5) =    -17.69658  eV     1   --> A              
     e(  6 -  6) =    -17.69629  eV     1   --> A              
     e(  7 -  7) =    -17.69533  eV     1   --> A              
     e(  8 -  8) =    -17.69518  eV     1   --> A              
     e(  9 -  9) =    -17.67909  eV     1   --> A              
     e( 10 - 10) =    -17.67812  eV     1   --> A              
     e( 11 - 11) =    -17.66514  eV     1   --> A              
     e( 12 - 13) =    -17.66491  eV     2   -->   2 A              
     e( 14 - 14) =    -17.66430  eV     1   --> A              
     e( 15 - 15) =    -17.65498  eV     1   --> A              
     e( 16 - 16) =    -17.65474  eV     1   --> A              
     e( 17 - 17) =    -17.64414  eV     1   --> A              
     e( 18 - 18) =    -17.64341  eV     1   --> A              
     e( 19 - 19) =    -17.64174  eV     1   --> A              
     e( 20 - 20) =    -17.64150  eV     1   --> A              
     e( 21 - 21) =     -9.15413  eV     1   --> A              
     e( 22 - 22) =     -8.91016  eV     1   --> A              
     e( 23 - 23) =     -8.84236  eV     1   --> A              
     e( 24 - 24) =     -8.74035  eV     1   --> A              
     e( 25 - 25) =     -8.09766  eV     1   --> A              
     e( 26 - 26) =     -7.86642  eV     1   --> A              
     e( 27 - 27) =     -6.51894  eV     1   --> A              
     e( 28 - 28) =     -6.44112  eV     1   --> A              
     e( 29 - 29) =     -5.10217  eV     1   --> A              
     e( 30 - 30) =     -5.03454  eV     1   --> A              
     e( 31 - 31) =     -3.43608  eV     1   --> A              
     e( 32 - 32) =     -3.19084  eV     1   --> A              
     e( 33 - 33) =      1.31755  eV     1   --> A              
     e( 34 - 34) =      1.36846  eV     1   --> A              
     e( 35 - 35) =      1.78551  eV     1   --> A              
     e( 36 - 36) =      1.87028  eV     1   --> A              
     e( 37 - 37) =      2.17137  eV     1   --> A              
     e( 38 - 38) =      2.39504  eV     1   --> A              
     e( 39 - 39) =      2.53021  eV     1   --> A              
     e( 40 - 40) =      2.75810  eV     1   --> A              
     e( 41 - 41) =      2.93972  eV     1   --> A              
     e( 42 - 42) =      3.03127  eV     1   --> A              
     e( 43 - 43) =      3.16914  eV     1   --> A              
     e( 44 - 44) =      3.24422  eV     1   --> A              
     e( 45 - 45) =      3.50911  eV     1   --> A              
     e( 46 - 46) =      3.55724  eV     1   --> A              
     e( 47 - 47) =      3.75576  eV     1   --> A              
     e( 48 - 48) =      3.81804  eV     1   --> A              
     e( 49 - 49) =      3.88457  eV     1   --> A              
     e( 50 - 50) =      4.01783  eV     1   --> A              
     e( 51 - 51) =      4.11606  eV     1   --> A              
     e( 52 - 52) =      4.18973  eV     1   --> A              
     e( 53 - 53) =      4.32516  eV     1   --> A              
     e( 54 - 54) =      4.35364  eV     1   --> A              
     e( 55 - 55) =      4.50956  eV     1   --> A              
     e( 56 - 56) =      4.58492  eV     1   --> A              
     e( 57 - 57) =      7.16779  eV     1   --> A              
     e( 58 - 58) =      7.27639  eV     1   --> A              
     e( 59 - 59) =      7.57599  eV     1   --> A              
     e( 60 - 60) =      7.82283  eV     1   --> A              
     e( 61 - 61) =      7.86939  eV     1   --> A              
     e( 62 - 62) =      8.08300  eV     1   --> A              
     e( 63 - 63) =      8.18362  eV     1   --> A              
     e( 64 - 64) =      8.50025  eV     1   --> A              
     e( 65 - 65) =      8.87782  eV     1   --> A              
     e( 66 - 66) =      9.14629  eV     1   --> A              
     e( 67 - 67) =      9.21131  eV     1   --> A              

 **************************************************************************

 **************************************************************************

                    xk=(   0.12500,   0.06036,   0.14496  )

     Band symmetry, C_1 (1)     point group:

     e(  1 -  1) =    -17.71019  eV     1   --> A              
     e(  2 -  2) =    -17.70984  eV     1   --> A              
     e(  3 -  3) =    -17.70284  eV     1   --> A              
     e(  4 -  4) =    -17.70273  eV     1   --> A              
     e(  5 -  5) =    -17.69652  eV     1   --> A              
     e(  6 -  6) =    -17.69640  eV     1   --> A              
     e(  7 -  8) =    -17.69529  eV     2   -->   2 A              
     e(  9 -  9) =    -17.67882  eV     1   --> A              
     e( 10 - 10) =    -17.67843  eV     1   --> A              
     e( 11 - 11) =    -17.66505  eV     1   --> A              
     e( 12 - 12) =    -17.66493  eV     1   --> A              
     e( 13 - 13) =    -17.66477  eV     1   --> A              
     e( 14 - 14) =    -17.66451  eV     1   --> A              
     e( 15 - 15) =    -17.65495  eV     1   --> A              
     e( 16 - 16) =    -17.65479  eV     1   --> A              
     e( 17 - 17) =    -17.64395  eV     1   --> A              
     e( 18 - 18) =    -17.64363  eV     1   --> A              
     e( 19 - 19) =    -17.64168  eV     1   --> A              
     e( 20 - 20) =    -17.64158  eV     1   --> A              
     e( 21 - 21) =     -9.09942  eV     1   --> A              
     e( 22 - 22) =     -9.00653  eV     1   --> A              
     e( 23 - 23) =     -8.79865  eV     1   --> A              
     e( 24 - 24) =     -8.76295  eV     1   --> A              
     e( 25 - 25) =     -8.01873  eV     1   --> A              
     e( 26 - 26) =     -7.92460  eV     1   --> A              
     e( 27 - 27) =     -6.49372  eV     1   --> A              
     e( 28 - 28) =     -6.46153  eV     1   --> A              
     e( 29 - 29) =     -5.09019  eV     1   --> A              
     e( 30 - 30) =     -5.06251  eV     1   --> A              
     e( 31 - 31) =     -3.35879  eV     1   --> A              
     e( 32 - 32) =     -3.25749  eV     1   --> A              
     e( 33 - 33) =      1.29495  eV     1   --> A              
     e( 34 - 34) =      1.31941  eV     1   --> A              
     e( 35 - 35) =      1.81064  eV     1   --> A              
     e( 36 - 36) =      1.85988  eV     1   --> A              
     e( 37 - 37) =      2.25885  eV     1   --> A              
     e( 38 - 38) =      2.38171  eV     1   --> A              
     e( 39 - 39) =      2.54807  eV     1   --> A              
     e( 40 - 40) =      2.72311  eV     1   --> A              
     e( 41 - 41) =      3.02325  eV     1   --> A              
     e( 42 - 42) =      3.07043  eV     1   --> A              
     e( 43 - 43) =      3.16771  eV     1   --> A              
     e( 44 - 44) =      3.25259  eV     1   --> A              
     e( 45 - 45) =      3.52650  eV     1   --> A              
     e( 46 - 46) =      3.60251  eV     1   --> A              
     e( 47 - 47) =      3.72469  eV     1   --> A              
     e( 48 - 48) =      3.77939  eV     1   --> A              
     e( 49 - 49) =      3.81753  eV     1   --> A              
     e( 50 - 50) =      3.98066  eV     1   --> A              
     e( 51 - 51) =      4.10938  eV     1   --> A              
     e( 52 - 52) =      4.14889  eV     1   --> A              
     e( 53 - 53) =      4.30325  eV     1   --> A              
     e( 54 - 54) =      4.33478  eV     1   --> A              
     e( 55 - 55) =      4.55342  eV     1   --> A              
     e( 56 - 56) =      4.58533  eV     1   --> A              
     e( 57 - 57) =      7.19448  eV     1   --> A              
     e( 58 - 58) =      7.22919  eV     1   --> A              
     e( 59 - 59) =      7.47839  eV     1   --> A              
     e( 60 - 60) =      7.57901  eV     1   --> A              
     e( 61 - 61) =      8.14826  eV     1   --> A              
     e( 62 - 62) =      8.24825  eV     1   --> A              
     e( 63 - 63) =      8.33652  eV     1   --> A              
     e( 64 - 64) =      8.42677  eV     1   --> A              
     e( 65 - 65) =      8.88485  eV     1   --> A              
     e( 66 - 66) =      9.05451  eV     1   --> A              
     e( 67 - 67) =      9.22567  eV     1   --> A              

 **************************************************************************

 **************************************************************************

                    xk=(   0.12500,   0.18107,   0.04832  )

     Band symmetry, C_1 (1)     point group:

     e(  1 -  1) =    -17.71021  eV     1   --> A              
     e(  2 -  2) =    -17.70988  eV     1   --> A              
     e(  3 -  3) =    -17.70286  eV     1   --> A              
     e(  4 -  4) =    -17.70273  eV     1   --> A              
     e(  5 -  5) =    -17.69651  eV     1   --> A              
     e(  6 -  6) =    -17.69639  eV     1   --> A              
     e(  7 -  8) =    -17.69529  eV     2   -->   2 A              
     e(  9 -  9) =    -17.67886  eV     1   --> A              
     e( 10 - 10) =    -17.67846  eV     1   --> A              
     e( 11 - 11) =    -17.66510  eV     1   --> A              
     e( 12 - 12) =    -17.66498  eV     1   --> A              
     e( 13 - 13) =    -17.66475  eV     1   --> A              
     e( 14 - 14) =    -17.66448  eV     1   --> A              
     e( 15 - 16) =    -17.65495  eV     2   -->   2 A              
     e( 17 - 17) =    -17.64393  eV     1   --> A              
     e( 18 - 18) =    -17.64364  eV     1   --> A              
     e( 19 - 20) =    -17.64169  eV     2   -->   2 A              
     e( 21 - 21) =     -9.07895  eV     1   --> A              
     e( 22 - 22) =     -8.96517  eV     1   --> A              
     e( 23 - 23) =     -8.84049  eV     1   --> A              
     e( 24 - 24) =     -8.78409  eV     1   --> A              
     e( 25 - 25) =     -8.03158  eV     1   --> A              
     e( 26 - 26) =     -7.93679  eV     1   --> A              
     e( 27 - 27) =     -6.47707  eV     1   --> A              
     e( 28 - 28) =     -6.44534  eV     1   --> A              
     e( 29 - 29) =     -5.08969  eV     1   --> A              
     e( 30 - 30) =     -5.06075  eV     1   --> A              
     e( 31 - 31) =     -3.35257  eV     1   --> A              
     e( 32 - 32) =     -3.25128  eV     1   --> A              
     e( 33 - 33) =      1.29085  eV     1   --> A              
     e( 34 - 34) =      1.32491  eV     1   --> A              
     e( 35 - 35) =      1.79032  eV     1   --> A              
     e( 36 - 36) =      1.82040  eV     1   --> A              
     e( 37 - 37) =      2.18009  eV     1   --> A              
     e( 38 - 38) =      2.29051  eV     1   --> A              
     e( 39 - 39) =      2.58443  eV     1   --> A              
     e( 40 - 40) =      2.70261  eV     1   --> A              
     e( 41 - 41) =      2.95334  eV     1   --> A              
     e( 42 - 42) =      3.01416  eV     1   --> A              
     e( 43 - 43) =      3.22191  eV     1   --> A              
     e( 44 - 44) =      3.30085  eV     1   --> A              
     e( 45 - 45) =      3.41751  eV     1   --> A              
     e( 46 - 46) =      3.67168  eV     1   --> A              
     e( 47 - 47) =      3.75021  eV     1   --> A              
     e( 48 - 48) =      3.80812  eV     1   --> A              
     e( 49 - 49) =      3.84974  eV     1   --> A              
     e( 50 - 50) =      3.97071  eV     1   --> A              
     e( 51 - 51) =      4.13976  eV     1   --> A              
     e( 52 - 52) =      4.22289  eV     1   --> A              
     e( 53 - 53) =      4.41515  eV     1   --> A              
     e( 54 - 54) =      4.43957  eV     1   --> A              
     e( 55 - 55) =      4.55957  eV     1   --> A              
     e( 56 - 56) =      4.58535  eV     1   --> A              
     e( 57 - 57) =      7.13565  eV     1   --> A              
     e( 58 - 58) =      7.16334  eV     1   --> A              
     e( 59 - 59) =      7.56025  eV     1   --> A              
     e( 60 - 60) =      7.70021  eV     1   --> A              
     e( 61 - 61) =      8.07215  eV     1   --> A              
     e( 62 - 62) =      8.20199  eV     1   --> A              
     e( 63 - 63) =      8.25290  eV     1   --> A              
     e( 64 - 64) =      8.38991  eV     1   --> A              
     e( 65 - 65) =      8.87710  eV     1   --> A              
     e( 66 - 66) =      9.06443  eV     1   --> A              
     e( 67 - 67) =      9.10356  eV     1   --> A              

 **************************************************************************

 **************************************************************************

                    xk=(   0.12500,   0.18107,   0.14496  )

     Band symmetry, C_1 (1)     point group:

     e(  1 -  1) =    -17.71012  eV     1   --> A              
     e(  2 -  2) =    -17.71000  eV     1   --> A              
     e(  3 -  4) =    -17.70280  eV     2   -->   2 A              
     e(  5 -  6) =    -17.69650  eV     2   -->   2 A              
     e(  7 -  8) =    -17.69529  eV     2   -->   2 A              
     e(  9 -  9) =    -17.67874  eV     1   --> A              
     e( 10 - 10) =    -17.67857  eV     1   --> A              
     e( 11 - 12) =    -17.66504  eV     2   -->   2 A              
     e( 13 - 14) =    -17.66469  eV     2   -->   2 A              
     e( 15 - 16) =    -17.65489  eV     2   -->   2 A              
     e( 17 - 17) =    -17.64383  eV     1   --> A              
     e( 18 - 18) =    -17.64371  eV     1   --> A              
     e( 19 - 20) =    -17.64168  eV     2   -->   2 A              
     e( 21 - 21) =     -9.04017  eV     1   --> A              
     e( 22 - 22) =     -8.98791  eV     1   --> A              
     e( 23 - 23) =     -8.84283  eV     1   --> A              
     e( 24 - 24) =     -8.81374  eV     1   --> A              
     e( 25 - 25) =     -7.99382  eV     1   --> A              
     e( 26 - 26) =     -7.95513  eV     1   --> A              
     e( 27 - 27) =     -6.46779  eV     1   --> A              
     e( 28 - 28) =     -6.45462  eV     1   --> A              
     e( 29 - 29) =     -5.08396  eV     1   --> A              
     e( 30 - 30) =     -5.07197  eV     1   --> A              
     e( 31 - 31) =     -3.32425  eV     1   --> A              
     e( 32 - 32) =     -3.28232  eV     1   --> A              
     e( 33 - 33) =      1.30764  eV     1   --> A              
     e( 34 - 34) =      1.33325  eV     1   --> A              
     e( 35 - 35) =      1.73816  eV     1   --> A              
     e( 36 - 36) =      1.76591  eV     1   --> A              
     e( 37 - 37) =      2.30066  eV     1   --> A              
     e( 38 - 38) =      2.37966  eV     1   --> A              
     e( 39 - 39) =      2.65237  eV     1   --> A              
     e( 40 - 40) =      2.72934  eV     1   --> A              
     e( 41 - 41) =      2.95460  eV     1   --> A              
     e( 42 - 42) =      2.99304  eV     1   --> A              
     e( 43 - 43) =      3.15158  eV     1   --> A              
     e( 44 - 44) =      3.25105  eV     1   --> A              
     e( 45 - 45) =      3.42676  eV     1   --> A              
     e( 46 - 46) =      3.51820  eV     1   --> A              
     e( 47 - 47) =      3.59229  eV     1   --> A              
     e( 48 - 48) =      3.66202  eV     1   --> A              
     e( 49 - 49) =      3.98335  eV     1   --> A              
     e( 50 - 50) =      4.08753  eV     1   --> A              
     e( 51 - 51) =      4.26198  eV     1   --> A              
     e( 52 - 52) =      4.32253  eV     1   --> A              
     e( 53 - 53) =      4.35593  eV     1   --> A              
     e( 54 - 54) =      4.41111  eV     1   --> A              
     e( 55 - 55) =      4.52532  eV     1   --> A              
     e( 56 - 56) =      4.56133  eV     1   --> A              
     e( 57 - 57) =      7.17234  eV     1   --> A              
     e( 58 - 58) =      7.18222  eV     1   --> A              
     e( 59 - 59) =      7.64316  eV     1   --> A              
     e( 60 - 60) =      7.82174  eV     1   --> A              
     e( 61 - 61) =      7.91126  eV     1   --> A              
     e( 62 - 62) =      8.12272  eV     1   --> A              
     e( 63 - 63) =      8.24973  eV     1   --> A              
     e( 64 - 64) =      8.32829  eV     1   --> A              
     e( 65 - 65) =      8.95502  eV     1   --> A              
     e( 66 - 66) =      9.03881  eV     1   --> A              
     e( 67 - 67) =      9.19959  eV     1   --> A              

 **************************************************************************

 **************************************************************************

                    xk=(   0.37500,   0.06036,   0.04832  )

     Band symmetry, C_1 (1)     point group:

     e(  1 -  1) =    -17.71263  eV     1   --> A              
     e(  2 -  2) =    -17.71238  eV     1   --> A              
     e(  3 -  3) =    -17.71147  eV     1   --> A              
     e(  4 -  4) =    -17.71089  eV     1   --> A              
     e(  5 -  6) =    -17.68707  eV     2   -->   2 A              
     e(  7 -  7) =    -17.68690  eV     1   --> A              
     e(  8 -  8) =    -17.68651  eV     1   --> A              
     e(  9 -  9) =    -17.67498  eV     1   --> A              
     e( 10 - 10) =    -17.67419  eV     1   --> A              
     e( 11 - 12) =    -17.66778  eV     2   -->   2 A              
     e( 13 - 13) =    -17.66653  eV     1   --> A              
     e( 14 - 14) =    -17.66629  eV     1   --> A              
     e( 15 - 15) =    -17.66054  eV     1   --> A              
     e( 16 - 16) =    -17.66032  eV     1   --> A              
     e( 17 - 17) =    -17.63945  eV     1   --> A              
     e( 18 - 18) =    -17.63902  eV     1   --> A              
     e( 19 - 19) =    -17.63879  eV     1   --> A              
     e( 20 - 20) =    -17.63837  eV     1   --> A              
     e( 21 - 21) =     -8.75642  eV     1   --> A              
     e( 22 - 22) =     -8.67453  eV     1   --> A              
     e( 23 - 23) =     -8.61357  eV     1   --> A              
     e( 24 - 24) =     -8.58807  eV     1   --> A              
     e( 25 - 25) =     -7.49000  eV     1   --> A              
     e( 26 - 26) =     -7.44111  eV     1   --> A              
     e( 27 - 27) =     -6.58691  eV     1   --> A              
     e( 28 - 28) =     -6.53796  eV     1   --> A              
     e( 29 - 29) =     -5.16256  eV     1   --> A              
     e( 30 - 30) =     -5.11192  eV     1   --> A              
     e( 31 - 31) =     -4.16558  eV     1   --> A              
     e( 32 - 32) =     -4.09718  eV     1   --> A              
     e( 33 - 33) =      0.89329  eV     1   --> A              
     e( 34 - 34) =      0.99295  eV     1   --> A              
     e( 35 - 35) =      1.10674  eV     1   --> A              
     e( 36 - 36) =      1.20776  eV     1   --> A              
     e( 37 - 37) =      1.68302  eV     1   --> A              
     e( 38 - 38) =      1.90773  eV     1   --> A              
     e( 39 - 39) =      2.17562  eV     1   --> A              
     e( 40 - 40) =      2.35917  eV     1   --> A              
     e( 41 - 41) =      2.39792  eV     1   --> A              
     e( 42 - 42) =      2.71931  eV     1   --> A              
     e( 43 - 43) =      2.97255  eV     1   --> A              
     e( 44 - 44) =      3.08375  eV     1   --> A              
     e( 45 - 45) =      3.23292  eV     1   --> A              
     e( 46 - 46) =      3.29933  eV     1   --> A              
     e( 47 - 47) =      3.63715  eV     1   --> A              
     e( 48 - 48) =      3.70598  eV     1   --> A              
     e( 49 - 49) =      3.77941  eV     1   --> A              
     e( 50 - 50) =      3.84299  eV     1   --> A              
     e( 51 - 51) =      3.96611  eV     1   --> A              
     e( 52 - 52) =      4.01239  eV     1   --> A              
     e( 53 - 53) =      4.10766  eV     1   --> A              
     e( 54 - 54) =      4.14265  eV     1   --> A              
     e( 55 - 55) =      4.30829  eV     1   --> A              
     e( 56 - 56) =      4.35305  eV     1   --> A              
     e( 57 - 57) =      7.38386  eV     1   --> A              
     e( 58 - 58) =      7.82117  eV     1   --> A              
     e( 59 - 59) =      8.02131  eV     1   --> A              
     e( 60 - 60) =      8.37608  eV     1   --> A              
     e( 61 - 61) =      8.42261  eV     1   --> A              
     e( 62 - 62) =      8.49144  eV     1   --> A              
     e( 63 - 63) =      8.63128  eV     1   --> A              
     e( 64 - 64) =      8.64653  eV     1   --> A              
     e( 65 - 65) =      9.19268  eV     1   --> A              
     e( 66 - 66) =      9.24313  eV     1   --> A              
     e( 67 - 67) =      9.51845  eV     1   --> A              

 **************************************************************************

 **************************************************************************

                    xk=(   0.37500,   0.06036,   0.14496  )

     Band symmetry, C_1 (1)     point group:

     e(  1 -  2) =    -17.71261  eV     2   -->   2 A              
     e(  3 -  3) =    -17.71127  eV     1   --> A              
     e(  4 -  4) =    -17.71103  eV     1   --> A              
     e(  5 -  6) =    -17.68709  eV     2   -->   2 A              
     e(  7 -  7) =    -17.68676  eV     1   --> A              
     e(  8 -  8) =    -17.68661  eV     1   --> A              
     e(  9 -  9) =    -17.67474  eV     1   --> A              
     e( 10 - 10) =    -17.67441  eV     1   --> A              
     e( 11 - 12) =    -17.66775  eV     2   -->   2 A              
     e( 13 - 13) =    -17.66646  eV     1   --> A              
     e( 14 - 14) =    -17.66634  eV     1   --> A              
     e( 15 - 16) =    -17.66045  eV     2   -->   2 A              
     e( 17 - 17) =    -17.63938  eV     1   --> A              
     e( 18 - 18) =    -17.63921  eV     1   --> A              
     e( 19 - 19) =    -17.63858  eV     1   --> A              
     e( 20 - 20) =    -17.63842  eV     1   --> A              
     e( 21 - 21) =     -8.73388  eV     1   --> A              
     e( 22 - 22) =     -8.70029  eV     1   --> A              
     e( 23 - 23) =     -8.60523  eV     1   --> A              
     e( 24 - 24) =     -8.59496  eV     1   --> A              
     e( 25 - 25) =     -7.47580  eV     1   --> A              
     e( 26 - 26) =     -7.45558  eV     1   --> A              
     e( 27 - 27) =     -6.57027  eV     1   --> A              
     e( 28 - 28) =     -6.54997  eV     1   --> A              
     e( 29 - 29) =     -5.15044  eV     1   --> A              
     e( 30 - 30) =     -5.12947  eV     1   --> A              
     e( 31 - 31) =     -4.14449  eV     1   --> A              
     e( 32 - 32) =     -4.11623  eV     1   --> A              
     e( 33 - 33) =      0.92538  eV     1   --> A              
     e( 34 - 34) =      0.94902  eV     1   --> A              
     e( 35 - 35) =      1.24365  eV     1   --> A              
     e( 36 - 36) =      1.27175  eV     1   --> A              
     e( 37 - 37) =      1.68468  eV     1   --> A              
     e( 38 - 38) =      1.73066  eV     1   --> A              
     e( 39 - 39) =      2.09949  eV     1   --> A              
     e( 40 - 40) =      2.13554  eV     1   --> A              
     e( 41 - 41) =      2.51606  eV     1   --> A              
     e( 42 - 42) =      2.62982  eV     1   --> A              
     e( 43 - 43) =      2.96329  eV     1   --> A              
     e( 44 - 44) =      3.05232  eV     1   --> A              
     e( 45 - 45) =      3.37083  eV     1   --> A              
     e( 46 - 46) =      3.49498  eV     1   --> A              
     e( 47 - 47) =      3.62390  eV     1   --> A              
     e( 48 - 48) =      3.69432  eV     1   --> A              
     e( 49 - 49) =      3.83460  eV     1   --> A              
     e( 50 - 50) =      3.88774  eV     1   --> A              
     e( 51 - 51) =      3.98540  eV     1   --> A              
     e( 52 - 52) =      4.01218  eV     1   --> A              
     e( 53 - 53) =      4.07402  eV     1   --> A              
     e( 54 - 54) =      4.13662  eV     1   --> A              
     e( 55 - 55) =      4.28713  eV     1   --> A              
     e( 56 - 56) =      4.38234  eV     1   --> A              
     e( 57 - 57) =      7.46389  eV     1   --> A              
     e( 58 - 58) =      7.63496  eV     1   --> A              
     e( 59 - 59) =      7.99217  eV     1   --> A              
     e( 60 - 60) =      8.10124  eV     1   --> A              
     e( 61 - 61) =      8.41582  eV     1   --> A              
     e( 62 - 62) =      8.50980  eV     1   --> A              
     e( 63 - 63) =      8.61325  eV     1   --> A              
     e( 64 - 64) =      8.66622  eV     1   --> A              
     e( 65 - 65) =      9.24836  eV     1   --> A              
     e( 66 - 66) =      9.42515  eV     1   --> A              
     e( 67 - 67) =      9.57252  eV     1   --> A              

 **************************************************************************

 **************************************************************************

                    xk=(   0.37500,   0.18107,   0.04832  )

     Band symmetry, C_1 (1)     point group:

     e(  1 -  2) =    -17.71253  eV     2   -->   2 A              
     e(  3 -  3) =    -17.71134  eV     1   --> A              
     e(  4 -  4) =    -17.71110  eV     1   --> A              
     e(  5 -  6) =    -17.68709  eV     2   -->   2 A              
     e(  7 -  7) =    -17.68677  eV     1   --> A              
     e(  8 -  8) =    -17.68664  eV     1   --> A              
     e(  9 -  9) =    -17.67473  eV     1   --> A              
     e( 10 - 10) =    -17.67440  eV     1   --> A              
     e( 11 - 12) =    -17.66778  eV     2   -->   2 A              
     e( 13 - 13) =    -17.66643  eV     1   --> A              
     e( 14 - 14) =    -17.66632  eV     1   --> A              
     e( 15 - 16) =    -17.66048  eV     2   -->   2 A              
     e( 17 - 17) =    -17.63929  eV     1   --> A              
     e( 18 - 18) =    -17.63904  eV     1   --> A              
     e( 19 - 19) =    -17.63876  eV     1   --> A              
     e( 20 - 20) =    -17.63854  eV     1   --> A              
     e( 21 - 21) =     -8.71552  eV     1   --> A              
     e( 22 - 22) =     -8.65898  eV     1   --> A              
     e( 23 - 23) =     -8.64678  eV     1   --> A              
     e( 24 - 24) =     -8.61356  eV     1   --> A              
     e( 25 - 25) =     -7.47901  eV     1   --> A              
     e( 26 - 26) =     -7.45855  eV     1   --> A              
     e( 27 - 27) =     -6.56867  eV     1   --> A              
     e( 28 - 28) =     -6.54811  eV     1   --> A              
     e( 29 - 29) =     -5.14771  eV     1   --> A              
     e( 30 - 30) =     -5.12655  eV     1   --> A              
     e( 31 - 31) =     -4.14745  eV     1   --> A              
     e( 32 - 32) =     -4.11911  eV     1   --> A              
     e( 33 - 33) =      0.90684  eV     1   --> A              
     e( 34 - 34) =      0.96704  eV     1   --> A              
     e( 35 - 35) =      1.17205  eV     1   --> A              
     e( 36 - 36) =      1.24970  eV     1   --> A              
     e( 37 - 37) =      1.80157  eV     1   --> A              
     e( 38 - 38) =      1.91064  eV     1   --> A              
     e( 39 - 39) =      2.11732  eV     1   --> A              
     e( 40 - 40) =      2.15236  eV     1   --> A              
     e( 41 - 41) =      2.52969  eV     1   --> A              
     e( 42 - 42) =      2.64450  eV     1   --> A              
     e( 43 - 43) =      2.89054  eV     1   --> A              
     e( 44 - 44) =      3.06639  eV     1   --> A              
     e( 45 - 45) =      3.36202  eV     1   --> A              
     e( 46 - 46) =      3.54834  eV     1   --> A              
     e( 47 - 47) =      3.64438  eV     1   --> A              
     e( 48 - 48) =      3.68673  eV     1   --> A              
     e( 49 - 49) =      3.71986  eV     1   --> A              
     e( 50 - 50) =      3.78133  eV     1   --> A              
     e( 51 - 51) =      3.97865  eV     1   --> A              
     e( 52 - 52) =      4.01195  eV     1   --> A              
     e( 53 - 53) =      4.06231  eV     1   --> A              
     e( 54 - 54) =      4.12891  eV     1   --> A              
     e( 55 - 55) =      4.17419  eV     1   --> A              
     e( 56 - 56) =      4.24048  eV     1   --> A              
     e( 57 - 57) =      7.41511  eV     1   --> A              
     e( 58 - 58) =      7.65516  eV     1   --> A              
     e( 59 - 59) =      8.24790  eV     1   --> A              
     e( 60 - 60) =      8.26851  eV     1   --> A              
     e( 61 - 61) =      8.40598  eV     1   --> A              
     e( 62 - 62) =      8.47742  eV     1   --> A              
     e( 63 - 63) =      8.56653  eV     1   --> A              
     e( 64 - 64) =      8.62491  eV     1   --> A              
     e( 65 - 65) =      9.27563  eV     1   --> A              
     e( 66 - 66) =      9.38100  eV     1   --> A              
     e( 67 - 67) =      9.60017  eV     1   --> A              

 **************************************************************************

 **************************************************************************

                    xk=(   0.37500,   0.18107,   0.14496  )

     Band symmetry, C_1 (1)     point group:

     e(  1 -  2) =    -17.71252  eV     2   -->   2 A              
     e(  3 -  3) =    -17.71124  eV     1   --> A              
     e(  4 -  4) =    -17.71113  eV     1   --> A              
     e(  5 -  6) =    -17.68705  eV     2   -->   2 A              
     e(  7 -  8) =    -17.68677  eV     2   -->   2 A              
     e(  9 -  9) =    -17.67464  eV     1   --> A              
     e( 10 - 10) =    -17.67449  eV     1   --> A              
     e( 11 - 12) =    -17.66775  eV     2   -->   2 A              
     e( 13 - 14) =    -17.66641  eV     2   -->   2 A              
     e( 15 - 16) =    -17.66043  eV     2   -->   2 A              
     e( 17 - 17) =    -17.63921  eV     1   --> A              
     e( 18 - 18) =    -17.63910  eV     1   --> A              
     e( 19 - 19) =    -17.63868  eV     1   --> A              
     e( 20 - 20) =    -17.63857  eV     1   --> A              
     e( 21 - 21) =     -8.69852  eV     1   --> A              
     e( 22 - 22) =     -8.67418  eV     1   --> A              
     e( 23 - 23) =     -8.63900  eV     1   --> A              
     e( 24 - 24) =     -8.62431  eV     1   --> A              
     e( 25 - 25) =     -7.47283  eV     1   --> A              
     e( 26 - 26) =     -7.46436  eV     1   --> A              
     e( 27 - 27) =     -6.56227  eV     1   --> A              
     e( 28 - 28) =     -6.55377  eV     1   --> A              
     e( 29 - 29) =     -5.14025  eV     1   --> A              
     e( 30 - 30) =     -5.13138  eV     1   --> A              
     e( 31 - 31) =     -4.14057  eV     1   --> A              
     e( 32 - 32) =     -4.12877  eV     1   --> A              
     e( 33 - 33) =      0.91535  eV     1   --> A              
     e( 34 - 34) =      0.93576  eV     1   --> A              
     e( 35 - 35) =      1.20268  eV     1   --> A              
     e( 36 - 36) =      1.24215  eV     1   --> A              
     e( 37 - 37) =      1.79931  eV     1   --> A              
     e( 38 - 38) =      1.83516  eV     1   --> A              
     e( 39 - 39) =      2.13928  eV     1   --> A              
     e( 40 - 40) =      2.21307  eV     1   --> A              
     e( 41 - 41) =      2.55553  eV     1   --> A              
     e( 42 - 42) =      2.68134  eV     1   --> A              
     e( 43 - 43) =      2.98394  eV     1   --> A              
     e( 44 - 44) =      3.12292  eV     1   --> A              
     e( 45 - 45) =      3.28834  eV     1   --> A              
     e( 46 - 46) =      3.38491  eV     1   --> A              
     e( 47 - 47) =      3.50088  eV     1   --> A              
     e( 48 - 48) =      3.64924  eV     1   --> A              
     e( 49 - 49) =      3.70769  eV     1   --> A              
     e( 50 - 50) =      3.83520  eV     1   --> A              
     e( 51 - 51) =      3.87377  eV     1   --> A              
     e( 52 - 52) =      4.01622  eV     1   --> A              
     e( 53 - 53) =      4.06865  eV     1   --> A              
     e( 54 - 54) =      4.16619  eV     1   --> A              
     e( 55 - 55) =      4.28558  eV     1   --> A              
     e( 56 - 56) =      4.34735  eV     1   --> A              
     e( 57 - 57) =      7.59628  eV     1   --> A              
     e( 58 - 58) =      7.70453  eV     1   --> A              
     e( 59 - 59) =      8.11356  eV     1   --> A              
     e( 60 - 60) =      8.20239  eV     1   --> A              
     e( 61 - 61) =      8.50099  eV     1   --> A              
     e( 62 - 62) =      8.51700  eV     1   --> A              
     e( 63 - 63) =      8.58353  eV     1   --> A              
     e( 64 - 64) =      8.61474  eV     1   --> A              
     e( 65 - 65) =      9.20375  eV     1   --> A              
     e( 66 - 66) =      9.30641  eV     1   --> A              
     e( 67 - 67) =      9.55462  eV     1   --> A              

 **************************************************************************

     BANDS        :   1m22.76s CPU   1m 2.50s WALL


   This run was terminated on:   5:30: 2  29Jul2025            

=------------------------------------------------------------------------------=
   JOB DONE.
=------------------------------------------------------------------------------=
