
     Program PWSCF v.7.4.1 starts on 29Jul2025 at  4:59:17 

     This program is part of the open-source Quantum ESPRESSO suite
     for quantum simulation of materials; please cite
         "P. Giannozzi et al., J. Phys.:Condens. Matter 21 395502 (2009);
         "P. Giannozzi et al., J. Phys.:Condens. Matter 29 465901 (2017);
         "P. Giannozzi et al., J. Chem. Phys. 152 154105 (2020);
          URL http://www.quantum-espresso.org", 
     in publications or presentations arising from this work. More details at
     http://www.quantum-espresso.org/quote

     Parallel version (MPI & OpenMP), running on      32 processor cores
     Number of MPI processes:                 1
     Threads/MPI process:                    32

     MPI processes distributed on     1 nodes
     3166 MiB available memory on the printing compute node when the environment starts

     Waiting for input...
     Reading input from standard input
Warning: card &IONS ignored
Warning: card / ignored
Warning: card &CELL ignored
Warning: card / ignored

     Current dimensions of program PWSCF are:
     Max number of different atomic species (ntypx) = 10
     Max number of k-points (npk) =  40000
     Max angular momentum in pseudopotentials (lmaxx) =  4
     file Bi.pbe-dn-kjpaw_psl.1.0.0.UPF: wavefunction(s)  6P 5D renormalized
     file S.pbe-n-kjpaw_psl.1.0.0.UPF: wavefunction(s)  3S 3P renormalized
     file Br.pbe-n-kjpaw_psl.1.0.0.UPF: wavefunction(s)  4S 4P renormalized

     IMPORTANT: XC functional enforced from input :
     Exchange-correlation= VDW-DF
                           (   1   4   4   0   1   0   0)
     Any further DFT definition will be discarded
     Please, verify this is what you really want


     Atomic positions and unit cell read from directory:
     ../out/BiSBr.save/

     Message from routine setup:
     using ibrav=0 with symmetry is DISCOURAGED, use correct ibrav instead

     Subspace diagonalization in iterative solution of the eigenvalue problem:
     a serial algorithm will be used


     G-vector sticks info
     --------------------
     sticks:   dense  smooth     PW     G-vecs:    dense   smooth      PW
     Sum        3933    1967    565               333903   118011   17973

     Using Slab Decomposition



     bravais-lattice index     =            0
     lattice parameter (alat)  =       7.7265  a.u.
     unit-cell volume          =    2471.2584 (a.u.)^3
     number of atoms/cell      =           12
     number of atomic types    =            3
     number of electrons       =       112.00
     number of Kohn-Sham states=           36
     kinetic-energy cutoff     =      50.0000  Ry
     charge density cutoff     =     400.0000  Ry
     Exchange-correlation= VDW-DF
                           (   1   4   4   0   1   0   0)

     celldm(1)=   7.726453  celldm(2)=   0.000000  celldm(3)=   0.000000
     celldm(4)=   0.000000  celldm(5)=   0.000000  celldm(6)=   0.000000

     crystal axes: (cart. coord. in units of alat)
               a(1) = (   1.000000   0.000000   0.000000 )  
               a(2) = (   0.000000   2.071004   0.000000 )  
               a(3) = (   0.000000   0.000000   2.587001 )  

     reciprocal axes: (cart. coord. in units 2 pi/alat)
               b(1) = (  1.000000  0.000000  0.000000 )  
               b(2) = (  0.000000  0.482858  0.000000 )  
               b(3) = (  0.000000  0.000000  0.386548 )  


     PseudoPot. # 1 for Bi read from file:
     ./pseudo/Bi.pbe-dn-kjpaw_psl.1.0.0.UPF
     MD5 check sum: 266ded784ae3bc462508ed03f0f37963
     Pseudo is Projector augmented-wave + core cor, Zval = 15.0
     Generated using &quot;atomic&quot; code by A. Dal Corso  v.6.2.2
     Shape of augmentation charge: PSQ
     Using radial grid of 1283 points,  6 beta functions with: 
                l(1) =   0
                l(2) =   0
                l(3) =   1
                l(4) =   1
                l(5) =   2
                l(6) =   2
     Q(r) pseudized with 0 coefficients 


     PseudoPot. # 2 for S  read from file:
     ./pseudo/S.pbe-n-kjpaw_psl.1.0.0.UPF
     MD5 check sum: fb45dfebcf3e72a4e1bd4a866ec2e262
     Pseudo is Projector augmented-wave + core cor, Zval =  6.0
     Generated using &quot;atomic&quot; code by A. Dal Corso  v.6.3
     Shape of augmentation charge: PSQ
     Using radial grid of 1151 points,  6 beta functions with: 
                l(1) =   0
                l(2) =   0
                l(3) =   1
                l(4) =   1
                l(5) =   2
                l(6) =   2
     Q(r) pseudized with 0 coefficients 


     PseudoPot. # 3 for Br read from file:
     ./pseudo/Br.pbe-n-kjpaw_psl.1.0.0.UPF
     MD5 check sum: b00de77caabc69c0a6b76eb37264f235
     Pseudo is Projector augmented-wave + core cor, Zval =  7.0
     Generated using &quot;atomic&quot; code by A. Dal Corso  v.6.3
     Shape of augmentation charge: PSQ
     Using radial grid of 1213 points,  4 beta functions with: 
                l(1) =   0
                l(2) =   0
                l(3) =   1
                l(4) =   1
     Q(r) pseudized with 0 coefficients 


     atomic species   valence    mass     pseudopotential
     Bi               15.00   208.98040     Bi( 1.00)
     S                 6.00    32.06000     S ( 1.00)
     Br                7.00    79.90400     Br( 1.00)

      8 Sym. Ops., with inversion, found ( 6 have fractional translation)



   Cartesian axes

     site n.     atom                  positions (alat units)
         1        Bi     tau(   1) = (   0.2500000   0.7950586   0.9526088  )
         2        Bi     tau(   2) = (   0.7500000   1.2759458   1.6343922  )
         3        Bi     tau(   3) = (   0.2500000   1.8305608   0.3408917  )
         4        Bi     tau(   4) = (   0.7500000   0.2404436   2.2461092  )
         5        S      tau(   5) = (   0.7500000   0.6833714   1.3917315  )
         6        S      tau(   6) = (   0.2500000   0.3521308   0.0982310  )
         7        S      tau(   7) = (   0.7500000   1.7188736   2.4887699  )
         8        S      tau(   8) = (   0.2500000   1.3876330   1.1952695  )
         9        Br     tau(   9) = (   0.2500000   0.9801774   2.0969117  )
        10        Br     tau(  10) = (   0.7500000   0.0553248   0.8034112  )
        11        Br     tau(  11) = (   0.2500000   2.0156796   1.7835897  )
        12        Br     tau(  12) = (   0.7500000   1.0908270   0.4900892  )

     number of k points=    13
                       cart. coord. in units 2pi/alat
        k(    1) = (   0.0000000   0.0000000   0.0000000), wk =   0.1538462
        k(    2) = (   0.5000000   0.0000000   0.0000000), wk =   0.1538462
        k(    3) = (   0.5000000   0.2414288   0.0000000), wk =   0.1538462
        k(    4) = (   0.0000000   0.2414288   0.0000000), wk =   0.1538462
        k(    5) = (   0.0000000   0.0000000   0.0000000), wk =   0.1538462
        k(    6) = (   0.0000000   0.0000000   0.1932740), wk =   0.1538462
        k(    7) = (   0.5000000   0.0000000   0.1932740), wk =   0.1538462
        k(    8) = (   0.5000000   0.2414288   0.1932740), wk =   0.1538462
        k(    9) = (   0.0000000   0.2414288   0.1932740), wk =   0.1538462
        k(   10) = (   0.0000000   0.0000000   0.1932740), wk =   0.1538462
        k(   11) = (   0.0000000   0.2414288   0.0000000), wk =   0.1538462
        k(   12) = (   0.0000000   0.2414288   0.1932740), wk =   0.1538462
        k(   13) = (   0.5000000   0.2414288   0.0000000), wk =   0.1538462

     Dense  grid:   333903 G-vectors     FFT dimensions: (  50, 108, 128)

     Smooth grid:   118011 G-vectors     FFT dimensions: (  36,  80,  90)

     Estimated max dynamical RAM per process >       1.11 GB

     The potential is recalculated from file :
     ../out/BiSBr.save/charge-density



     %%%%%%%%%%%%%%%%%%%%%%%%%%%%%%%%%%%%%%%%%%%%%%%%%%%%%%%%%%%%%%%%%%%%%%%%
     %                                                                      %
     % You are using vdW-DF, which was implemented by the Thonhauser group. %
     % Please cite the following two papers that made this development      %
     % possible and the two reviews that describe the various versions:     %
     %                                                                      %
     %   T. Thonhauser et al., PRL 115, 136402 (2015).                      %
     %   T. Thonhauser et al., PRB 76, 125112 (2007).                       %
     %   K. Berland et al., Rep. Prog. Phys. 78, 066501 (2015).             %
     %   D.C. Langreth et al., J. Phys.: Condens. Matter 21, 084203 (2009). %
     %                                                                      %
     % If you are calculating stress with vdW-DF, please also cite:         %
     %                                                                      %
     %   R. Sabatini et al., J. Phys.: Condens. Matter 24, 424209 (2012).   %
     %                                                                      %
     %%%%%%%%%%%%%%%%%%%%%%%%%%%%%%%%%%%%%%%%%%%%%%%%%%%%%%%%%%%%%%%%%%%%%%%%

     %%%%%%%%%%%%%%%%%%%%%%%%%%%%%%%%%%%%%%%%%%%%%%%%%%%%%%%%%%%%%%%%%%%%%%%%
     %                                                                      %
     %  vdW-DF NEWS:                                                        %
     %                                                                      %
     %  * vdW-DF3 is now available. DOI: 10.1021/acs.jctc.0c00471           %
     %    use with input_dft = 'vdW-DF3-opt1' or 'vdW-DF3-opt2'             %
     %                                                                      %
     %  * Unscreened and range-separated hybrid vdW-DF-cx functionals       %
     %    DOI: 10.1063/1.4986522 and 10.1088/1361-648X/ac2ad2               %
     %    use with input_dft = 'vdW-DF-cx0'    and 'vdW-DF-ahcx'            %
     %  * Unscreened and range-separated hybrid vdW-DF2-b86r functionals    %
     %    DOI: 10.1063/1.4986522 and DOI: 10.1103/PhysRevX.12.041003        %
     %    use with input_dft = 'vdW-DF2-br0' and 'vdW-DF2-ahbr'             %
     %                                                                      %
     %%%%%%%%%%%%%%%%%%%%%%%%%%%%%%%%%%%%%%%%%%%%%%%%%%%%%%%%%%%%%%%%%%%%%%%%


     Starting wfcs are   68 randomized atomic wfcs
     Checking if some PAW data can be deallocated... 

     Band Structure Calculation
     Davidson diagonalization with overlap

     ethr =  8.93E-10,  avg # of iterations = 42.2

     total cpu time spent up to now is      181.9 secs

     End of band structure calculation

          k = 0.0000 0.0000 0.0000 ( 14713 PWs)   bands (ev):

   -17.7144 -17.7132 -17.7063 -17.7059 -17.6938 -17.6935 -17.6923 -17.6922
   -17.6807 -17.6795 -17.6651 -17.6641 -17.6638 -17.6636 -17.6545 -17.6541
   -17.6454 -17.6444 -17.6412 -17.6410  -9.2442  -8.9230  -8.9053  -8.7607
    -8.1941  -7.8959  -6.5966  -6.4871  -5.0323  -4.9309  -3.3859  -3.0459
     1.2955   1.3910   2.1150   2.3166

          k = 0.5000 0.0000 0.0000 ( 14786 PWs)   bands (ev):

   -17.7149 -17.7149 -17.7144 -17.7144 -17.6839 -17.6839 -17.6838 -17.6838
   -17.6717 -17.6717 -17.6715 -17.6715 -17.6638 -17.6638 -17.6636 -17.6636
   -17.6380 -17.6380 -17.6374 -17.6374  -8.6484  -8.6484  -8.5569  -8.5569
    -7.0340  -7.0340  -6.9879  -6.9879  -4.7224  -4.7224  -4.6687  -4.6687
     0.8640   0.8640   0.9774   0.9774

          k = 0.5000 0.2414 0.0000 ( 14748 PWs)   bands (ev):

   -17.7146 -17.7146 -17.7146 -17.7146 -17.6838 -17.6838 -17.6838 -17.6838
   -17.6716 -17.6716 -17.6716 -17.6716 -17.6637 -17.6637 -17.6637 -17.6637
   -17.6376 -17.6376 -17.6376 -17.6376  -8.6030  -8.6030  -8.6030  -8.6030
    -7.0107  -7.0107  -7.0107  -7.0107  -4.6988  -4.6988  -4.6988  -4.6988
     0.9512   0.9512   0.9512   0.9512

          k = 0.0000 0.2414 0.0000 ( 14804 PWs)   bands (ev):

   -17.7139 -17.7139 -17.7061 -17.7061 -17.6937 -17.6937 -17.6923 -17.6923
   -17.6802 -17.6802 -17.6647 -17.6647 -17.6637 -17.6637 -17.6543 -17.6543
   -17.6449 -17.6449 -17.6412 -17.6412  -9.0912  -9.0912  -8.8444  -8.8444
    -8.0472  -8.0472  -6.5112  -6.5112  -4.9955  -4.9955  -3.1930  -3.1930
     1.2345   1.2345   2.2310   2.2310

          k = 0.0000 0.0000 0.0000 ( 14713 PWs)   bands (ev):

   -17.7144 -17.7132 -17.7063 -17.7059 -17.6938 -17.6935 -17.6923 -17.6922
   -17.6807 -17.6795 -17.6651 -17.6641 -17.6638 -17.6636 -17.6545 -17.6541
   -17.6454 -17.6444 -17.6412 -17.6410  -9.2442  -8.9230  -8.9053  -8.7607
    -8.1941  -7.8959  -6.5966  -6.4871  -5.0323  -4.9309  -3.3859  -3.0459
     1.2955   1.3910   2.1150   2.3166

          k = 0.0000 0.0000 0.1933 ( 14740 PWs)   bands (ev):

   -17.7138 -17.7138 -17.7061 -17.7061 -17.6937 -17.6937 -17.6922 -17.6922
   -17.6801 -17.6801 -17.6647 -17.6647 -17.6637 -17.6637 -17.6543 -17.6543
   -17.6450 -17.6450 -17.6411 -17.6411  -9.1286  -9.1286  -8.8055  -8.8055
    -8.0281  -8.0281  -6.5377  -6.5377  -4.9965  -4.9965  -3.2045  -3.2045
     1.2860   1.2860   2.2517   2.2517

          k = 0.5000 0.0000 0.1933 ( 14728 PWs)   bands (ev):

   -17.7149 -17.7149 -17.7143 -17.7143 -17.6839 -17.6839 -17.6837 -17.6837
   -17.6719 -17.6719 -17.6712 -17.6712 -17.6637 -17.6637 -17.6636 -17.6636
   -17.6379 -17.6379 -17.6373 -17.6373  -8.6480  -8.6480  -8.5569  -8.5569
    -7.0643  -7.0643  -6.9570  -6.9570  -4.7135  -4.7135  -4.6798  -4.6798
     0.8811   0.8811   1.1180   1.1180

          k = 0.5000 0.2414 0.1933 ( 14720 PWs)   bands (ev):

   -17.7146 -17.7146 -17.7146 -17.7146 -17.6838 -17.6838 -17.6838 -17.6838
   -17.6715 -17.6715 -17.6715 -17.6715 -17.6636 -17.6636 -17.6636 -17.6636
   -17.6376 -17.6376 -17.6376 -17.6376  -8.6029  -8.6029  -8.6029  -8.6029
    -7.0113  -7.0113  -7.0113  -7.0113  -4.6978  -4.6978  -4.6978  -4.6978
     0.9552   0.9552   0.9552   0.9552

          k = 0.0000 0.2414 0.1933 ( 14772 PWs)   bands (ev):

   -17.7139 -17.7139 -17.7061 -17.7061 -17.6937 -17.6937 -17.6923 -17.6923
   -17.6802 -17.6802 -17.6647 -17.6647 -17.6638 -17.6638 -17.6542 -17.6542
   -17.6449 -17.6449 -17.6412 -17.6412  -9.0656  -9.0656  -8.8830  -8.8830
    -8.0304  -8.0304  -6.5124  -6.5124  -4.9996  -4.9996  -3.1961  -3.1961
     1.2930   1.2930   2.2847   2.2847

          k = 0.0000 0.0000 0.1933 ( 14740 PWs)   bands (ev):

   -17.7138 -17.7138 -17.7061 -17.7061 -17.6937 -17.6937 -17.6922 -17.6922
   -17.6801 -17.6801 -17.6647 -17.6647 -17.6637 -17.6637 -17.6543 -17.6543
   -17.6450 -17.6450 -17.6411 -17.6411  -9.1286  -9.1286  -8.8055  -8.8055
    -8.0281  -8.0281  -6.5377  -6.5377  -4.9965  -4.9965  -3.2045  -3.2045
     1.2860   1.2860   2.2517   2.2517

          k = 0.0000 0.2414 0.0000 ( 14804 PWs)   bands (ev):

   -17.7139 -17.7139 -17.7061 -17.7061 -17.6937 -17.6937 -17.6923 -17.6923
   -17.6802 -17.6802 -17.6647 -17.6647 -17.6637 -17.6637 -17.6543 -17.6543
   -17.6449 -17.6449 -17.6412 -17.6412  -9.0912  -9.0912  -8.8444  -8.8444
    -8.0472  -8.0472  -6.5112  -6.5112  -4.9955  -4.9955  -3.1930  -3.1930
     1.2345   1.2345   2.2310   2.2310

          k = 0.0000 0.2414 0.1933 ( 14772 PWs)   bands (ev):

   -17.7139 -17.7139 -17.7061 -17.7061 -17.6937 -17.6937 -17.6923 -17.6923
   -17.6802 -17.6802 -17.6647 -17.6647 -17.6638 -17.6638 -17.6542 -17.6542
   -17.6449 -17.6449 -17.6412 -17.6412  -9.0656  -9.0656  -8.8830  -8.8830
    -8.0304  -8.0304  -6.5124  -6.5124  -4.9996  -4.9996  -3.1961  -3.1961
     1.2930   1.2930   2.2847   2.2847

          k = 0.5000 0.2414 0.0000 ( 14748 PWs)   bands (ev):

   -17.7146 -17.7146 -17.7146 -17.7146 -17.6838 -17.6838 -17.6838 -17.6838
   -17.6716 -17.6716 -17.6716 -17.6716 -17.6637 -17.6637 -17.6637 -17.6637
   -17.6376 -17.6376 -17.6376 -17.6376  -8.6030  -8.6030  -8.6030  -8.6030
    -7.0107  -7.0107  -7.0107  -7.0107  -4.6988  -4.6988  -4.6988  -4.6988
     0.9512   0.9512   0.9512   0.9512

     Writing all to output data dir ../out/BiSBr.save/ :
     XML data file, pseudopotentials, collected wavefunctions

     init_run     :     69.46s CPU     56.50s WALL (       1 calls)
     electrons    :   2698.49s CPU    125.25s WALL (       1 calls)

     Called by init_run:
     wfcinit      :      0.00s CPU      0.00s WALL (       1 calls)
     potinit      :     64.43s CPU     54.56s WALL (       1 calls)
     hinit0       :      1.16s CPU      0.47s WALL (       1 calls)

     Called by electrons:
     c_bands      :   2698.48s CPU    125.25s WALL (       1 calls)
     v_of_rho     :     54.30s CPU     53.99s WALL (       1 calls)
     newd         :      3.42s CPU      1.38s WALL (       1 calls)
     PAW_pot      :      9.82s CPU      0.54s WALL (       1 calls)
     vdW_kernel   :     52.70s CPU     52.71s WALL (       1 calls)

     Called by c_bands:
     init_us_2    :      4.49s CPU      0.36s WALL (      13 calls)
     cegterg      :   2561.83s CPU    119.72s WALL (      34 calls)

     Called by *egterg:
     cdiaghg      :     10.06s CPU      1.25s WALL (     561 calls)
     h_psi        :   2045.06s CPU     81.28s WALL (     595 calls)
     s_psi        :     65.08s CPU      4.06s WALL (     595 calls)
     g_psi        :    125.81s CPU      8.33s WALL (     548 calls)

     Called by h_psi:
     h_psi:calbec :     84.08s CPU      3.46s WALL (     595 calls)
     vloc_psi     :   1792.72s CPU     66.18s WALL (     595 calls)
     add_vuspsi   :     18.04s CPU      2.03s WALL (     595 calls)

     General routines
     calbec       :     83.98s CPU      3.46s WALL (     595 calls)
     fft          :      0.54s CPU      0.40s WALL (      63 calls)
     ffts         :      0.00s CPU      0.00s WALL (       1 calls)
     fftw         :    937.08s CPU     31.33s WALL (   19312 calls)
     interpolate  :      0.09s CPU      0.01s WALL (       1 calls)
     davcio       :      0.33s CPU      0.05s WALL (      26 calls)

     Parallel routines

     PWSCF        :  46m10.74s CPU   3m 2.06s WALL


   This run was terminated on:   5: 2:19  29Jul2025            

=------------------------------------------------------------------------------=
   JOB DONE.
=------------------------------------------------------------------------------=
