
     Program BANDS v.7.4.1 starts on 22Sep2025 at  2:19:23 

     This program is part of the open-source Quantum ESPRESSO suite
     for quantum simulation of materials; please cite
         "P. Giannozzi et al., J. Phys.:Condens. Matter 21 395502 (2009);
         "P. Giannozzi et al., J. Phys.:Condens. Matter 29 465901 (2017);
         "P. Giannozzi et al., J. Chem. Phys. 152 154105 (2020);
          URL http://www.quantum-espresso.org", 
     in publications or presentations arising from this work. More details at
     http://www.quantum-espresso.org/quote

     Parallel version (MPI & OpenMP), running on       1 processor cores
     Number of MPI processes:                 1
     Threads/MPI process:                     1

     MPI processes distributed on     1 nodes
     59408 MiB available memory on the printing compute node when the environment starts


     Reading xml data from directory:

     ../out/SbOCl.save/
     file Sb.pbe-n-kjpaw_psl.1.0.0.UPF: wavefunction(s)  5S renormalized
     file Cl.pbe-n-kjpaw_psl.1.0.0.UPF: wavefunction(s)  3S 3P renormalized
     file O.pbe-n-kjpaw_psl.1.0.0.UPF: wavefunction(s)  2S 2P renormalized

     IMPORTANT: XC functional enforced from input :
     Exchange-correlation= VDW-DF
                           (   1   4   4   0   1   0   0)
     Any further DFT definition will be discarded
     Please, verify this is what you really want


     G-vector sticks info
     --------------------
     sticks:   dense  smooth     PW     G-vecs:    dense   smooth      PW
     Sum        1669     845    241               117437    41639    6729

     Using Slab Decomposition



     %%%%%%%%%%%%%%%%%%%%%%%%%%%%%%%%%%%%%%%%%%%%%%%%%%%%%%%%%%%%%%%%%%%%%%%%
     %                                                                      %
     % You are using vdW-DF, which was implemented by the Thonhauser group. %
     % Please cite the following two papers that made this development      %
     % possible and the two reviews that describe the various versions:     %
     %                                                                      %
     %   T. Thonhauser et al., PRL 115, 136402 (2015).                      %
     %   T. Thonhauser et al., PRB 76, 125112 (2007).                       %
     %   K. Berland et al., Rep. Prog. Phys. 78, 066501 (2015).             %
     %   D.C. Langreth et al., J. Phys.: Condens. Matter 21, 084203 (2009). %
     %                                                                      %
     % If you are calculating stress with vdW-DF, please also cite:         %
     %                                                                      %
     %   R. Sabatini et al., J. Phys.: Condens. Matter 24, 424209 (2012).   %
     %                                                                      %
     %%%%%%%%%%%%%%%%%%%%%%%%%%%%%%%%%%%%%%%%%%%%%%%%%%%%%%%%%%%%%%%%%%%%%%%%

     %%%%%%%%%%%%%%%%%%%%%%%%%%%%%%%%%%%%%%%%%%%%%%%%%%%%%%%%%%%%%%%%%%%%%%%%
     %                                                                      %
     %  vdW-DF NEWS:                                                        %
     %                                                                      %
     %  * vdW-DF3 is now available. DOI: 10.1021/acs.jctc.0c00471           %
     %    use with input_dft = 'vdW-DF3-opt1' or 'vdW-DF3-opt2'             %
     %                                                                      %
     %  * Unscreened and range-separated hybrid vdW-DF-cx functionals       %
     %    DOI: 10.1063/1.4986522 and 10.1088/1361-648X/ac2ad2               %
     %    use with input_dft = 'vdW-DF-cx0'    and 'vdW-DF-ahcx'            %
     %  * Unscreened and range-separated hybrid vdW-DF2-b86r functionals    %
     %    DOI: 10.1063/1.4986522 and DOI: 10.1103/PhysRevX.12.041003        %
     %    use with input_dft = 'vdW-DF2-br0' and 'vdW-DF2-ahbr'             %
     %                                                                      %
     %%%%%%%%%%%%%%%%%%%%%%%%%%%%%%%%%%%%%%%%%%%%%%%%%%%%%%%%%%%%%%%%%%%%%%%%


     Reading collected, re-writing distributed wavefunctions
     high-symmetry point:  0.0000 0.0000 0.0000   x coordinate   0.0000
     high-symmetry point:  0.0000 0.5000 0.0000   x coordinate   0.5000
     high-symmetry point:  0.5000 0.5000 0.0000   x coordinate   1.0000
     high-symmetry point:  0.0000 0.0000 0.0000   x coordinate   1.7071
     high-symmetry point:  0.0000 0.0000 0.2187   x coordinate   1.9258
     high-symmetry point:  0.0000 0.5000 0.2187   x coordinate   2.4258
     high-symmetry point:  0.5000 0.5000 0.2187   x coordinate   2.9258
     high-symmetry point:  0.0000 0.0000 0.2187   x coordinate   3.6329
     high-symmetry point:  0.0000 0.5000 0.0000   x coordinate   4.1786
     high-symmetry point:  0.0000 0.5000 0.2187   x coordinate   4.3972
     high-symmetry point:  0.5000 0.5000 0.0000   x coordinate   4.9430
     high-symmetry point:  0.5000 0.5000 0.2187   x coordinate   5.1616

     Plottable bands (eV) written to file SbOCl.band.gnu
     Bands written to file SbOCl.band

 **************************************************************************

                    xk=(   0.00000,   0.00000,   0.00000  )

     point group D_4h(4/mmm)
     there are 10 classes
     the character table:

       E     2C4   C2    2C2'  2C2'' i     2S4   s_h   2s_v  2s_d 
A_1g   1.00  1.00  1.00  1.00  1.00  1.00  1.00  1.00  1.00  1.00
A_2g   1.00  1.00  1.00 -1.00 -1.00  1.00  1.00  1.00 -1.00 -1.00
B_1g   1.00 -1.00  1.00  1.00 -1.00  1.00 -1.00  1.00  1.00 -1.00
B_2g   1.00 -1.00  1.00 -1.00  1.00  1.00 -1.00  1.00 -1.00  1.00
E_g    2.00  0.00 -2.00  0.00  0.00  2.00  0.00 -2.00  0.00  0.00
A_1u   1.00  1.00  1.00  1.00  1.00 -1.00 -1.00 -1.00 -1.00 -1.00
A_2u   1.00  1.00  1.00 -1.00 -1.00 -1.00 -1.00 -1.00  1.00  1.00
B_1u   1.00 -1.00  1.00  1.00 -1.00 -1.00  1.00 -1.00 -1.00  1.00
B_2u   1.00 -1.00  1.00 -1.00  1.00 -1.00  1.00 -1.00  1.00 -1.00
E_u    2.00  0.00 -2.00  0.00  0.00 -2.00  0.00  2.00  0.00  0.00

     the symmetry operations in each class and the name of the first element:

     E        1
                                                                 
     2C4      7    8
                                                                 
     C2       2
                                                                 
     2C2'     3    4
                                                                 
     2C2''    5    6
                                                                 
     i        9
                                                                 
     2S4     15   16
                                                                 
     s_h     10
                                                                 
     2s_v    11   12
                                                                 
     2s_d    13   14
                                                                 

     Band symmetry, D_4h(4/mmm) point group:

     e(  1 -  1) =    -15.86346  eV     1   --> A_1g X_1  M_1  
     e(  2 -  2) =    -13.72957  eV     1   --> B_2u X_3' M_3' 
     e(  3 -  3) =     -9.82395  eV     1   --> A_2u X_4' M_4' 
     e(  4 -  4) =     -9.81076  eV     1   --> A_1g X_1  M_1  
     e(  5 -  5) =     -5.35729  eV     1   --> A_2u X_4' M_4' 
     e(  6 -  6) =     -2.64837  eV     1   --> A_1g X_1  M_1  
     e(  7 -  8) =     -2.09647  eV     2   --> E_g  X_5  M_5  
     e(  9 -  9) =      0.67700  eV     1   --> B_1g X_2  M_2  
     e( 10 - 11) =      1.01937  eV     2   --> E_u  X_5' M_5' 
     e( 12 - 12) =      2.19433  eV     1   --> A_2u X_4' M_4' 
     e( 13 - 13) =      2.21756  eV     1   --> A_1g X_1  M_1  
     e( 14 - 15) =      2.44270  eV     2   --> E_u  X_5' M_5' 
     e( 16 - 17) =      2.50884  eV     2   --> E_g  X_5  M_5  
     e( 18 - 18) =      2.58273  eV     1   --> A_2u X_4' M_4' 
     e( 19 - 19) =      5.48111  eV     1   --> A_1g X_1  M_1  
     e( 20 - 20) =      5.90581  eV     1   --> A_2u X_4' M_4' 
     e( 21 - 22) =      7.61140  eV     2   --> E_u  X_5' M_5' 
     e( 23 - 24) =      9.35196  eV     2   --> E_g  X_5  M_5  
     e( 25 - 25) =     11.68335  eV     1   --> B_2u X_3' M_3' 
     e( 26 - 26) =     11.97980  eV     1   --> A_1g X_1  M_1  
     e( 27 - 27) =     12.17933  eV     1   --> A_2u X_4' M_4' 
     e( 28 - 28) =     12.60705  eV     1   --> B_1g X_2  M_2  
     e( 29 - 29) =     14.82758  eV     1   --> A_1g X_1  M_1  
     e( 30 - 30) =     15.86497  eV     1   --> B_2g X_3  M_3  
     e( 31 - 32) =     16.58751  eV     2   --> E_g  X_5  M_5  
     e( 33 - 33) =     17.10542  eV     1   --> A_2u X_4' M_4' 
     e( 34 - 34) =     17.18755  eV     1   --> B_1u X_2' M_2' 
     e( 35 - 35) =     17.43642  eV     1   --> B_2u X_3' M_3' 
     e( 36 - 36) =     17.93843  eV     1   --> A_1g X_1  M_1  

 **************************************************************************

 **************************************************************************

                    xk=(   0.00000,   0.50000,   0.00000  )

     zone border point and non-symmorphic group 
     symmetry decomposition not available

 **************************************************************************

 **************************************************************************

                    xk=(   0.50000,   0.50000,   0.00000  )

     zone border point and non-symmorphic group 
     symmetry decomposition not available

 **************************************************************************

 **************************************************************************

                    xk=(   0.00000,   0.00000,   0.00000  )

     Band symmetry, D_4h(4/mmm) point group:

     e(  1 -  1) =    -15.86346  eV     1   --> A_1g X_1  M_1  
     e(  2 -  2) =    -13.72957  eV     1   --> B_2u X_3' M_3' 
     e(  3 -  3) =     -9.82395  eV     1   --> A_2u X_4' M_4' 
     e(  4 -  4) =     -9.81076  eV     1   --> A_1g X_1  M_1  
     e(  5 -  5) =     -5.35729  eV     1   --> A_2u X_4' M_4' 
     e(  6 -  6) =     -2.64837  eV     1   --> A_1g X_1  M_1  
     e(  7 -  8) =     -2.09647  eV     2   --> E_g  X_5  M_5  
     e(  9 -  9) =      0.67700  eV     1   --> B_1g X_2  M_2  
     e( 10 - 11) =      1.01937  eV     2   --> E_u  X_5' M_5' 
     e( 12 - 12) =      2.19433  eV     1   --> A_2u X_4' M_4' 
     e( 13 - 13) =      2.21756  eV     1   --> A_1g X_1  M_1  
     e( 14 - 15) =      2.44270  eV     2   --> E_u  X_5' M_5' 
     e( 16 - 17) =      2.50884  eV     2   --> E_g  X_5  M_5  
     e( 18 - 18) =      2.58273  eV     1   --> A_2u X_4' M_4' 
     e( 19 - 19) =      5.48111  eV     1   --> A_1g X_1  M_1  
     e( 20 - 20) =      5.90581  eV     1   --> A_2u X_4' M_4' 
     e( 21 - 22) =      7.61140  eV     2   --> E_u  X_5' M_5' 
     e( 23 - 24) =      9.35196  eV     2   --> E_g  X_5  M_5  
     e( 25 - 25) =     11.68335  eV     1   --> B_2u X_3' M_3' 
     e( 26 - 26) =     11.97980  eV     1   --> A_1g X_1  M_1  
     e( 27 - 27) =     12.17933  eV     1   --> A_2u X_4' M_4' 
     e( 28 - 28) =     12.60705  eV     1   --> B_1g X_2  M_2  
     e( 29 - 29) =     14.82758  eV     1   --> A_1g X_1  M_1  
     e( 30 - 30) =     15.86497  eV     1   --> B_2g X_3  M_3  
     e( 31 - 32) =     16.58751  eV     2   --> E_g  X_5  M_5  
     e( 33 - 33) =     17.10542  eV     1   --> A_2u X_4' M_4' 
     e( 34 - 34) =     17.18755  eV     1   --> B_1u X_2' M_2' 
     e( 35 - 35) =     17.43642  eV     1   --> B_2u X_3' M_3' 
     e( 36 - 36) =     17.93843  eV     1   --> A_1g X_1  M_1  

 **************************************************************************

 **************************************************************************

                    xk=(   0.00000,   0.00000,   0.21865  )

     Band symmetry, D_4h(4/mmm) point group:

     e(  1 -  1) =    -15.86340  eV     1   --> A_1g X_1  M_1  
     e(  2 -  2) =    -13.72958  eV     1   --> B_2u X_3' M_3' 
     e(  3 -  3) =     -9.91036  eV     1   --> A_2u X_4' M_4' 
     e(  4 -  4) =     -9.72008  eV     1   --> A_1g X_1  M_1  
     e(  5 -  5) =     -5.36642  eV     1   --> A_2u X_4' M_4' 
     e(  6 -  6) =     -2.64612  eV     1   --> A_1g X_1  M_1  
     e(  7 -  8) =     -2.09595  eV     2   --> E_g  X_5  M_5  
     e(  9 -  9) =      0.67693  eV     1   --> B_1g X_2  M_2  
     e( 10 - 11) =      1.01736  eV     2   --> E_u  X_5' M_5' 
     e( 12 - 12) =      1.94279  eV     1   --> A_2u X_4' M_4' 
     e( 13 - 13) =      2.29238  eV     1   --> A_2u X_4' M_4' 
     e( 14 - 15) =      2.33542  eV     2   --> E_u  X_5' M_5' 
     e( 16 - 17) =      2.62764  eV     2   --> E_g  X_5  M_5  
     e( 18 - 18) =      2.89545  eV     1   --> A_1g X_1  M_1  
     e( 19 - 19) =      5.48672  eV     1   --> A_1g X_1  M_1  
     e( 20 - 20) =      5.63222  eV     1   --> A_2u X_4' M_4' 
     e( 21 - 22) =      7.57604  eV     2   --> E_u  X_5' M_5' 
     e( 23 - 24) =      9.37414  eV     2   --> E_g  X_5  M_5  
     e( 25 - 25) =     11.95339  eV     1   --> B_2u X_3' M_3' 
     e( 26 - 26) =     12.22465  eV     1   --> B_1g X_2  M_2  
     e( 27 - 27) =     12.38141  eV     1   --> A_2u X_4' M_4' 
     e( 28 - 28) =     13.28966  eV     1   --> A_2u X_4' M_4' 
     e( 29 - 29) =     13.40479  eV     1   --> A_1g X_1  M_1  
     e( 30 - 30) =     15.80982  eV     1   --> A_1g X_1  M_1  
     e( 31 - 31) =     15.90972  eV     1   --> B_2g X_3  M_3  
     e( 32 - 33) =     16.72304  eV     2   --> E_u  X_5' M_5' 
     e( 34 - 34) =     16.99787  eV     1   --> B_1u X_2' M_2' 
     e( 35 - 36) =     18.35749  eV     2   --> E_g  X_5  M_5  

 **************************************************************************

 **************************************************************************

                    xk=(   0.00000,   0.50000,   0.21865  )

     zone border point and non-symmorphic group 
     symmetry decomposition not available

 **************************************************************************

 **************************************************************************

                    xk=(   0.50000,   0.50000,   0.21865  )

     zone border point and non-symmorphic group 
     symmetry decomposition not available

 **************************************************************************

 **************************************************************************

                    xk=(   0.00000,   0.00000,   0.21865  )

     Band symmetry, D_4h(4/mmm) point group:

     e(  1 -  1) =    -15.86340  eV     1   --> A_1g X_1  M_1  
     e(  2 -  2) =    -13.72958  eV     1   --> B_2u X_3' M_3' 
     e(  3 -  3) =     -9.91036  eV     1   --> A_2u X_4' M_4' 
     e(  4 -  4) =     -9.72008  eV     1   --> A_1g X_1  M_1  
     e(  5 -  5) =     -5.36642  eV     1   --> A_2u X_4' M_4' 
     e(  6 -  6) =     -2.64612  eV     1   --> A_1g X_1  M_1  
     e(  7 -  8) =     -2.09595  eV     2   --> E_g  X_5  M_5  
     e(  9 -  9) =      0.67693  eV     1   --> B_1g X_2  M_2  
     e( 10 - 11) =      1.01736  eV     2   --> E_u  X_5' M_5' 
     e( 12 - 12) =      1.94279  eV     1   --> A_2u X_4' M_4' 
     e( 13 - 13) =      2.29238  eV     1   --> A_2u X_4' M_4' 
     e( 14 - 15) =      2.33542  eV     2   --> E_u  X_5' M_5' 
     e( 16 - 17) =      2.62764  eV     2   --> E_g  X_5  M_5  
     e( 18 - 18) =      2.89545  eV     1   --> A_1g X_1  M_1  
     e( 19 - 19) =      5.48672  eV     1   --> A_1g X_1  M_1  
     e( 20 - 20) =      5.63222  eV     1   --> A_2u X_4' M_4' 
     e( 21 - 22) =      7.57604  eV     2   --> E_u  X_5' M_5' 
     e( 23 - 24) =      9.37414  eV     2   --> E_g  X_5  M_5  
     e( 25 - 25) =     11.95339  eV     1   --> B_2u X_3' M_3' 
     e( 26 - 26) =     12.22465  eV     1   --> B_1g X_2  M_2  
     e( 27 - 27) =     12.38141  eV     1   --> A_2u X_4' M_4' 
     e( 28 - 28) =     13.28966  eV     1   --> A_2u X_4' M_4' 
     e( 29 - 29) =     13.40479  eV     1   --> A_1g X_1  M_1  
     e( 30 - 30) =     15.80982  eV     1   --> A_1g X_1  M_1  
     e( 31 - 31) =     15.90972  eV     1   --> B_2g X_3  M_3  
     e( 32 - 33) =     16.72304  eV     2   --> E_u  X_5' M_5' 
     e( 34 - 34) =     16.99787  eV     1   --> B_1u X_2' M_2' 
     e( 35 - 36) =     18.35749  eV     2   --> E_g  X_5  M_5  

 **************************************************************************

 **************************************************************************

                    xk=(   0.00000,   0.50000,   0.00000  )

     zone border point and non-symmorphic group 
     symmetry decomposition not available

 **************************************************************************

 **************************************************************************

                    xk=(   0.00000,   0.50000,   0.21865  )

     zone border point and non-symmorphic group 
     symmetry decomposition not available

 **************************************************************************

 **************************************************************************

                    xk=(   0.50000,   0.50000,   0.00000  )

     zone border point and non-symmorphic group 
     symmetry decomposition not available

 **************************************************************************

 **************************************************************************

                    xk=(   0.50000,   0.50000,   0.21865  )

     zone border point and non-symmorphic group 
     symmetry decomposition not available

 **************************************************************************

     BANDS        :     58.33s CPU   1m 0.27s WALL


   This run was terminated on:   2:20:23  22Sep2025            

=------------------------------------------------------------------------------=
   JOB DONE.
=------------------------------------------------------------------------------=
