
     Program PWSCF v.7.4.1 starts on 29Jul2025 at  4:49:32 

     This program is part of the open-source Quantum ESPRESSO suite
     for quantum simulation of materials; please cite
         "P. Giannozzi et al., J. Phys.:Condens. Matter 21 395502 (2009);
         "P. Giannozzi et al., J. Phys.:Condens. Matter 29 465901 (2017);
         "P. Giannozzi et al., J. Chem. Phys. 152 154105 (2020);
          URL http://www.quantum-espresso.org", 
     in publications or presentations arising from this work. More details at
     http://www.quantum-espresso.org/quote

     Parallel version (MPI & OpenMP), running on      32 processor cores
     Number of MPI processes:                 1
     Threads/MPI process:                    32

     MPI processes distributed on     1 nodes
     3233 MiB available memory on the printing compute node when the environment starts

     Waiting for input...
     Reading input from standard input
Warning: card &IONS ignored
Warning: card / ignored
Warning: card &CELL ignored
Warning: card / ignored

     Current dimensions of program PWSCF are:
     Max number of different atomic species (ntypx) = 10
     Max number of k-points (npk) =  40000
     Max angular momentum in pseudopotentials (lmaxx) =  4
     file Sb.pbe-n-kjpaw_psl.1.0.0.UPF: wavefunction(s)  5S renormalized
     file Br.pbe-n-kjpaw_psl.1.0.0.UPF: wavefunction(s)  4S 4P renormalized
     file O.pbe-n-kjpaw_psl.1.0.0.UPF: wavefunction(s)  2S 2P renormalized

     IMPORTANT: XC functional enforced from input :
     Exchange-correlation= VDW-DF
                           (   1   4   4   0   1   0   0)
     Any further DFT definition will be discarded
     Please, verify this is what you really want


     Atomic positions and unit cell read from directory:
     ../out/SbOBr.save/

     Message from routine setup:
     using ibrav=0 with symmetry is DISCOURAGED, use correct ibrav instead

     Subspace diagonalization in iterative solution of the eigenvalue problem:
     a serial algorithm will be used


     G-vector sticks info
     --------------------
     sticks:   dense  smooth     PW     G-vecs:    dense   smooth      PW
     Sum        1669     845    241               117437    41639    6729

     Using Slab Decomposition



     bravais-lattice index     =            0
     lattice parameter (alat)  =       7.2477  a.u.
     unit-cell volume          =     870.6086 (a.u.)^3
     number of atoms/cell      =            6
     number of atomic types    =            3
     number of electrons       =        36.00
     number of Kohn-Sham states=           36
     kinetic-energy cutoff     =      50.0000  Ry
     charge density cutoff     =     400.0000  Ry
     Exchange-correlation= VDW-DF
                           (   1   4   4   0   1   0   0)

     celldm(1)=   7.247735  celldm(2)=   0.000000  celldm(3)=   0.000000
     celldm(4)=   0.000000  celldm(5)=   0.000000  celldm(6)=   0.000000

     crystal axes: (cart. coord. in units of alat)
               a(1) = (   1.000000   0.000000   0.000000 )  
               a(2) = (   0.000000   1.000000   0.000000 )  
               a(3) = (   0.000000   0.000000   2.286736 )  

     reciprocal axes: (cart. coord. in units 2 pi/alat)
               b(1) = (  1.000000  0.000000  0.000000 )  
               b(2) = (  0.000000  1.000000  0.000000 )  
               b(3) = (  0.000000  0.000000  0.437304 )  


     PseudoPot. # 1 for Sb read from file:
     ./pseudo/Sb.pbe-n-kjpaw_psl.1.0.0.UPF
     MD5 check sum: 6b903ae7923846f66e229fa892705b98
     Pseudo is Projector augmented-wave + core cor, Zval =  5.0
     Generated using &quot;atomic&quot; code by A. Dal Corso  v.6.2.2
     Shape of augmentation charge: PSQ
     Using radial grid of 1243 points,  6 beta functions with: 
                l(1) =   0
                l(2) =   0
                l(3) =   1
                l(4) =   1
                l(5) =   2
                l(6) =   2
     Q(r) pseudized with 0 coefficients 


     PseudoPot. # 2 for Br read from file:
     ./pseudo/Br.pbe-n-kjpaw_psl.1.0.0.UPF
     MD5 check sum: b00de77caabc69c0a6b76eb37264f235
     Pseudo is Projector augmented-wave + core cor, Zval =  7.0
     Generated using &quot;atomic&quot; code by A. Dal Corso  v.6.3
     Shape of augmentation charge: PSQ
     Using radial grid of 1213 points,  4 beta functions with: 
                l(1) =   0
                l(2) =   0
                l(3) =   1
                l(4) =   1
     Q(r) pseudized with 0 coefficients 


     PseudoPot. # 3 for O  read from file:
     ./pseudo/O.pbe-n-kjpaw_psl.1.0.0.UPF
     MD5 check sum: e99d9cef9b487d1ca56f5b95ecd0fd7a
     Pseudo is Projector augmented-wave + core cor, Zval =  6.0
     Generated using &quot;atomic&quot; code by A. Dal Corso  v.6.3
     Shape of augmentation charge: PSQ
     Using radial grid of 1095 points,  4 beta functions with: 
                l(1) =   0
                l(2) =   0
                l(3) =   1
                l(4) =   1
     Q(r) pseudized with 0 coefficients 


     atomic species   valence    mass     pseudopotential
     Sb                5.00   121.76000     Sb( 1.00)
     Br                7.00    79.90400     Br( 1.00)
     O                 6.00    15.99900     O ( 1.00)

     16 Sym. Ops., with inversion, found ( 8 have fractional translation)



   Cartesian axes

     site n.     atom                  positions (alat units)
         1        Sb     tau(   1) = (   0.0000000   0.5000000   1.9660627  )
         2        Sb     tau(   2) = (   0.5000000   0.0000000   0.3206736  )
         3        Br     tau(   3) = (   0.5000000   0.0000000   1.5521634  )
         4        Br     tau(   4) = (   0.0000000   0.5000000   0.7345729  )
         5        O      tau(   5) = (   0.0000000   0.0000000   0.0000000  )
         6        O      tau(   6) = (   0.5000000   0.5000000   0.0000000  )

     number of k points=    12
                       cart. coord. in units 2pi/alat
        k(    1) = (   0.0000000   0.0000000   0.0000000), wk =   0.1666667
        k(    2) = (   0.0000000   0.5000000   0.0000000), wk =   0.1666667
        k(    3) = (   0.5000000   0.5000000   0.0000000), wk =   0.1666667
        k(    4) = (   0.0000000   0.0000000   0.0000000), wk =   0.1666667
        k(    5) = (   0.0000000   0.0000000   0.2186522), wk =   0.1666667
        k(    6) = (   0.0000000   0.5000000   0.2186522), wk =   0.1666667
        k(    7) = (   0.5000000   0.5000000   0.2186522), wk =   0.1666667
        k(    8) = (   0.0000000   0.0000000   0.2186522), wk =   0.1666667
        k(    9) = (   0.0000000   0.5000000   0.0000000), wk =   0.1666667
        k(   10) = (   0.0000000   0.5000000   0.2186522), wk =   0.1666667
        k(   11) = (   0.5000000   0.5000000   0.0000000), wk =   0.1666667
        k(   12) = (   0.5000000   0.5000000   0.2186522), wk =   0.1666667

     Dense  grid:   117437 G-vectors     FFT dimensions: (  48,  48, 108)

     Smooth grid:    41639 G-vectors     FFT dimensions: (  36,  36,  75)

     Estimated max dynamical RAM per process >     390.10 MB

     The potential is recalculated from file :
     ../out/SbOBr.save/charge-density



     %%%%%%%%%%%%%%%%%%%%%%%%%%%%%%%%%%%%%%%%%%%%%%%%%%%%%%%%%%%%%%%%%%%%%%%%
     %                                                                      %
     % You are using vdW-DF, which was implemented by the Thonhauser group. %
     % Please cite the following two papers that made this development      %
     % possible and the two reviews that describe the various versions:     %
     %                                                                      %
     %   T. Thonhauser et al., PRL 115, 136402 (2015).                      %
     %   T. Thonhauser et al., PRB 76, 125112 (2007).                       %
     %   K. Berland et al., Rep. Prog. Phys. 78, 066501 (2015).             %
     %   D.C. Langreth et al., J. Phys.: Condens. Matter 21, 084203 (2009). %
     %                                                                      %
     % If you are calculating stress with vdW-DF, please also cite:         %
     %                                                                      %
     %   R. Sabatini et al., J. Phys.: Condens. Matter 24, 424209 (2012).   %
     %                                                                      %
     %%%%%%%%%%%%%%%%%%%%%%%%%%%%%%%%%%%%%%%%%%%%%%%%%%%%%%%%%%%%%%%%%%%%%%%%

     %%%%%%%%%%%%%%%%%%%%%%%%%%%%%%%%%%%%%%%%%%%%%%%%%%%%%%%%%%%%%%%%%%%%%%%%
     %                                                                      %
     %  vdW-DF NEWS:                                                        %
     %                                                                      %
     %  * vdW-DF3 is now available. DOI: 10.1021/acs.jctc.0c00471           %
     %    use with input_dft = 'vdW-DF3-opt1' or 'vdW-DF3-opt2'             %
     %                                                                      %
     %  * Unscreened and range-separated hybrid vdW-DF-cx functionals       %
     %    DOI: 10.1063/1.4986522 and 10.1088/1361-648X/ac2ad2               %
     %    use with input_dft = 'vdW-DF-cx0'    and 'vdW-DF-ahcx'            %
     %  * Unscreened and range-separated hybrid vdW-DF2-b86r functionals    %
     %    DOI: 10.1063/1.4986522 and DOI: 10.1103/PhysRevX.12.041003        %
     %    use with input_dft = 'vdW-DF2-br0' and 'vdW-DF2-ahbr'             %
     %                                                                      %
     %%%%%%%%%%%%%%%%%%%%%%%%%%%%%%%%%%%%%%%%%%%%%%%%%%%%%%%%%%%%%%%%%%%%%%%%


     Starting wfcs are   24 randomized atomic wfcs +   12 random wfcs
     Checking if some PAW data can be deallocated... 

     Band Structure Calculation
     Davidson diagonalization with overlap

     ethr =  2.78E-09,  avg # of iterations = 49.5

     total cpu time spent up to now is      154.5 secs

     End of band structure calculation

          k = 0.0000 0.0000 0.0000 (  5201 PWs)   bands (ev):

   -14.5913 -12.4393  -9.0612  -9.0591  -4.1362  -1.5259  -0.8508  -0.8508
     1.9239   2.2903   2.2903   3.1897   3.3431   3.5962   3.5962   3.6732
     3.6732   3.7746   6.5812   7.2146   8.9356   8.9356  10.5677  10.5677
    11.9783  12.9049  12.9315  13.0199  15.8353  16.8693  17.2371  17.2371
    17.7720  18.0547  18.1453  19.3284

          k = 0.0000 0.5000 0.0000 (  5192 PWs)   bands (ev):

   -13.4935 -13.4935  -8.7294  -8.7294  -3.8468  -3.8468   0.0072   0.0072
     0.5881   0.5881   1.3451   1.3451   3.3780   3.3780   4.0677   4.0677
     4.6162   4.6162   8.5961   8.5961   8.9347   8.9347   9.6118   9.6118
    12.8439  12.8439  13.9027  13.9027  16.1005  16.1005  17.2167  17.2167
    17.2204  17.2204  18.2061  18.2061

          k = 0.5000 0.5000 0.0000 (  5216 PWs)   bands (ev):

   -13.2633 -13.2633  -8.5208  -8.5208  -4.7327  -4.7327  -0.3878  -0.3878
     1.3654   1.3654   1.6897   1.6897   2.9602   2.9602   3.1256   3.1256
     3.6126   3.6126   7.6694   7.6694   9.5222   9.5222  10.2771  10.2771
    13.4724  13.4724  14.9287  14.9287  16.7492  16.7492  17.7283  17.7283
    19.0886  19.0886  20.2306  20.2306

          k = 0.0000 0.0000 0.0000 (  5201 PWs)   bands (ev):

   -14.5913 -12.4393  -9.0612  -9.0591  -4.1362  -1.5259  -0.8508  -0.8508
     1.9239   2.2903   2.2903   3.1897   3.3431   3.5962   3.5962   3.6732
     3.6732   3.7746   6.5812   7.2146   8.9356   8.9356  10.5677  10.5677
    11.9783  12.9049  12.9315  13.0199  15.8353  16.8693  17.2371  17.2371
    17.7720  18.0547  18.1453  19.3284

          k = 0.0000 0.0000 0.2187 (  5230 PWs)   bands (ev):

   -14.5912 -12.4393  -9.1827  -8.9302  -4.1608  -1.5014  -0.8497  -0.8497
     1.9238   2.2849   2.2849   2.8560   3.4420   3.4420   3.4505   3.8529
     3.8529   4.2089   6.5397   6.8417   8.8437   8.8437  10.6379  10.6379
    12.3220  12.4630  13.7840  13.9641  13.9831  16.9335  17.2372  17.3971
    17.3971  17.9143  18.7392  19.4369

          k = 0.0000 0.5000 0.2187 (  5192 PWs)   bands (ev):

   -13.4935 -13.4935  -8.7300  -8.7300  -3.8443  -3.8443   0.0633   0.0633
     0.5884   0.5884   1.2043   1.2043   3.5258   3.5258   4.0656   4.0656
     4.5719   4.5719   8.5078   8.5078   8.9472   8.9472   9.6044   9.6044
    13.3095  13.3095  14.0451  14.0451  15.8472  15.8472  15.8629  15.8629
    17.4381  17.4381  18.2605  18.2605

          k = 0.5000 0.5000 0.2187 (  5224 PWs)   bands (ev):

   -13.2633 -13.2633  -8.5206  -8.5206  -4.7354  -4.7354  -0.4114  -0.4114
     1.4291   1.4291   1.9186   1.9186   2.6738   2.6738   3.1256   3.1256
     3.4899   3.4899   8.0107   8.0107   9.6712   9.6712   9.9011   9.9011
    14.1039  14.1039  15.1795  15.1795  15.2126  15.2126  17.3596  17.3596
    19.7003  19.7003  20.2296  20.2296

          k = 0.0000 0.0000 0.2187 (  5230 PWs)   bands (ev):

   -14.5912 -12.4393  -9.1827  -8.9302  -4.1608  -1.5014  -0.8497  -0.8497
     1.9238   2.2849   2.2849   2.8560   3.4420   3.4420   3.4505   3.8529
     3.8529   4.2089   6.5397   6.8417   8.8437   8.8437  10.6379  10.6379
    12.3220  12.4630  13.7840  13.9641  13.9831  16.9335  17.2372  17.3971
    17.3971  17.9143  18.7392  19.4369

          k = 0.0000 0.5000 0.0000 (  5192 PWs)   bands (ev):

   -13.4935 -13.4935  -8.7294  -8.7294  -3.8468  -3.8468   0.0072   0.0072
     0.5881   0.5881   1.3451   1.3451   3.3780   3.3780   4.0677   4.0677
     4.6162   4.6162   8.5961   8.5961   8.9347   8.9347   9.6118   9.6118
    12.8439  12.8439  13.9027  13.9027  16.1005  16.1005  17.2167  17.2167
    17.2204  17.2204  18.2061  18.2061

          k = 0.0000 0.5000 0.2187 (  5192 PWs)   bands (ev):

   -13.4935 -13.4935  -8.7300  -8.7300  -3.8443  -3.8443   0.0633   0.0633
     0.5884   0.5884   1.2043   1.2043   3.5258   3.5258   4.0656   4.0656
     4.5719   4.5719   8.5078   8.5078   8.9472   8.9472   9.6044   9.6044
    13.3095  13.3095  14.0451  14.0451  15.8472  15.8472  15.8629  15.8629
    17.4381  17.4381  18.2605  18.2605

          k = 0.5000 0.5000 0.0000 (  5216 PWs)   bands (ev):

   -13.2633 -13.2633  -8.5208  -8.5208  -4.7327  -4.7327  -0.3878  -0.3878
     1.3654   1.3654   1.6897   1.6897   2.9602   2.9602   3.1256   3.1256
     3.6126   3.6126   7.6694   7.6694   9.5222   9.5222  10.2771  10.2771
    13.4724  13.4724  14.9287  14.9287  16.7492  16.7492  17.7283  17.7283
    19.0886  19.0886  20.2306  20.2306

          k = 0.5000 0.5000 0.2187 (  5224 PWs)   bands (ev):

   -13.2633 -13.2633  -8.5206  -8.5206  -4.7354  -4.7354  -0.4114  -0.4114
     1.4291   1.4291   1.9186   1.9186   2.6738   2.6738   3.1256   3.1256
     3.4899   3.4899   8.0107   8.0107   9.6712   9.6712   9.9011   9.9011
    14.1039  14.1039  15.1795  15.1795  15.2126  15.2126  17.3596  17.3596
    19.7003  19.7003  20.2296  20.2296

     Writing all to output data dir ../out/SbOBr.save/ :
     XML data file, pseudopotentials, collected wavefunctions

     init_run     :     60.82s CPU     54.20s WALL (       1 calls)
     electrons    :   2026.16s CPU    100.17s WALL (       1 calls)

     Called by init_run:
     wfcinit      :      0.00s CPU      0.00s WALL (       1 calls)
     potinit      :     57.96s CPU     53.47s WALL (       1 calls)
     hinit0       :      1.06s CPU      0.38s WALL (       1 calls)

     Called by electrons:
     c_bands      :   2026.16s CPU    100.17s WALL (       1 calls)
     v_of_rho     :     53.64s CPU     53.24s WALL (       1 calls)
     newd         :      1.47s CPU      0.33s WALL (       1 calls)
     PAW_pot      :      4.04s CPU      0.21s WALL (       1 calls)
     vdW_kernel   :     52.73s CPU     52.74s WALL (       1 calls)

     Called by c_bands:
     init_us_2    :      2.29s CPU      0.16s WALL (      12 calls)
     cegterg      :   1980.10s CPU     98.15s WALL (      37 calls)

     Called by *egterg:
     cdiaghg      :     17.10s CPU      1.68s WALL (     606 calls)
     h_psi        :   1372.69s CPU     59.45s WALL (     643 calls)
     s_psi        :     44.67s CPU      2.64s WALL (     643 calls)
     g_psi        :    129.97s CPU      8.25s WALL (     594 calls)

     Called by h_psi:
     h_psi:calbec :     62.49s CPU      2.11s WALL (     643 calls)
     vloc_psi     :   1143.26s CPU     46.67s WALL (     643 calls)
     add_vuspsi   :     21.76s CPU      1.65s WALL (     643 calls)

     General routines
     calbec       :     62.45s CPU      2.11s WALL (     643 calls)
     fft          :      0.70s CPU      0.23s WALL (      63 calls)
     ffts         :      0.00s CPU      0.00s WALL (       1 calls)
     fftw         :    377.93s CPU     12.78s WALL (   24068 calls)
     interpolate  :      0.10s CPU      0.00s WALL (       1 calls)
     davcio       :      0.18s CPU      0.02s WALL (      24 calls)

     Parallel routines

     PWSCF        :  34m49.06s CPU   2m34.58s WALL


   This run was terminated on:   4:52: 7  29Jul2025            

=------------------------------------------------------------------------------=
   JOB DONE.
=------------------------------------------------------------------------------=
Note: The following floating-point exceptions are signalling: IEEE_UNDERFLOW_FLAG IEEE_DENORMAL
