
     Program BANDS v.7.4.1 starts on 29Jul2025 at  5:26:55 

     This program is part of the open-source Quantum ESPRESSO suite
     for quantum simulation of materials; please cite
         "P. Giannozzi et al., J. Phys.:Condens. Matter 21 395502 (2009);
         "P. Giannozzi et al., J. Phys.:Condens. Matter 29 465901 (2017);
         "P. Giannozzi et al., J. Chem. Phys. 152 154105 (2020);
          URL http://www.quantum-espresso.org", 
     in publications or presentations arising from this work. More details at
     http://www.quantum-espresso.org/quote

     Parallel version (MPI & OpenMP), running on      32 processor cores
     Number of MPI processes:                 1
     Threads/MPI process:                    32

     MPI processes distributed on     1 nodes
     3095 MiB available memory on the printing compute node when the environment starts


     Reading xml data from directory:

     ../out/BiSCl.save/
     file Bi.pbe-dn-kjpaw_psl.1.0.0.UPF: wavefunction(s)  6P 5D renormalized
     file S.pbe-n-kjpaw_psl.1.0.0.UPF: wavefunction(s)  3S 3P renormalized
     file Cl.pbe-n-kjpaw_psl.1.0.0.UPF: wavefunction(s)  3S 3P renormalized

     IMPORTANT: XC functional enforced from input :
     Exchange-correlation= VDW-DF
                           (   1   4   4   0   1   0   0)
     Any further DFT definition will be discarded
     Please, verify this is what you really want


     G-vector sticks info
     --------------------
     sticks:   dense  smooth     PW     G-vecs:    dense   smooth      PW
     Sum        3701    1855    503               310147   109643   15829

     Using Slab Decomposition



     %%%%%%%%%%%%%%%%%%%%%%%%%%%%%%%%%%%%%%%%%%%%%%%%%%%%%%%%%%%%%%%%%%%%%%%%
     %                                                                      %
     % You are using vdW-DF, which was implemented by the Thonhauser group. %
     % Please cite the following two papers that made this development      %
     % possible and the two reviews that describe the various versions:     %
     %                                                                      %
     %   T. Thonhauser et al., PRL 115, 136402 (2015).                      %
     %   T. Thonhauser et al., PRB 76, 125112 (2007).                       %
     %   K. Berland et al., Rep. Prog. Phys. 78, 066501 (2015).             %
     %   D.C. Langreth et al., J. Phys.: Condens. Matter 21, 084203 (2009). %
     %                                                                      %
     % If you are calculating stress with vdW-DF, please also cite:         %
     %                                                                      %
     %   R. Sabatini et al., J. Phys.: Condens. Matter 24, 424209 (2012).   %
     %                                                                      %
     %%%%%%%%%%%%%%%%%%%%%%%%%%%%%%%%%%%%%%%%%%%%%%%%%%%%%%%%%%%%%%%%%%%%%%%%

     %%%%%%%%%%%%%%%%%%%%%%%%%%%%%%%%%%%%%%%%%%%%%%%%%%%%%%%%%%%%%%%%%%%%%%%%
     %                                                                      %
     %  vdW-DF NEWS:                                                        %
     %                                                                      %
     %  * vdW-DF3 is now available. DOI: 10.1021/acs.jctc.0c00471           %
     %    use with input_dft = 'vdW-DF3-opt1' or 'vdW-DF3-opt2'             %
     %                                                                      %
     %  * Unscreened and range-separated hybrid vdW-DF-cx functionals       %
     %    DOI: 10.1063/1.4986522 and 10.1088/1361-648X/ac2ad2               %
     %    use with input_dft = 'vdW-DF-cx0'    and 'vdW-DF-ahcx'            %
     %  * Unscreened and range-separated hybrid vdW-DF2-b86r functionals    %
     %    DOI: 10.1063/1.4986522 and DOI: 10.1103/PhysRevX.12.041003        %
     %    use with input_dft = 'vdW-DF2-br0' and 'vdW-DF2-ahbr'             %
     %                                                                      %
     %%%%%%%%%%%%%%%%%%%%%%%%%%%%%%%%%%%%%%%%%%%%%%%%%%%%%%%%%%%%%%%%%%%%%%%%


     Reading collected, re-writing distributed wavefunctions
     high-symmetry point:  0.1250 0.0625 0.0480   x coordinate   0.0000
     high-symmetry point:  0.1250 0.0625 0.1439   x coordinate   0.0959
     high-symmetry point:  0.1250 0.1876 0.0480   x coordinate   0.2535
     high-symmetry point:  0.1250 0.1876 0.1439   x coordinate   0.3494
     high-symmetry point:  0.3750 0.0625 0.0480   x coordinate   0.6450
     high-symmetry point:  0.3750 0.0625 0.1439   x coordinate   0.7409
     high-symmetry point:  0.3750 0.1876 0.0480   x coordinate   0.8985
     high-symmetry point:  0.3750 0.1876 0.1439   x coordinate   0.9944

     Plottable bands (eV) written to file BiSCl.band.gnu
     Bands written to file BiSCl.band

 **************************************************************************

                    xk=(   0.12500,   0.06252,   0.04796  )

     point group C_1 (1)    
     there are  1 classes
     the character table:

       E    
A      1.00

     the symmetry operations in each class and the name of the first element:

     E        1
                                                                 

     Band symmetry, C_1 (1)     point group:

     e(  1 -  1) =    -17.58292  eV     1   --> A              
     e(  2 -  2) =    -17.58165  eV     1   --> A              
     e(  3 -  3) =    -17.57447  eV     1   --> A              
     e(  4 -  4) =    -17.57386  eV     1   --> A              
     e(  5 -  5) =    -17.56367  eV     1   --> A              
     e(  6 -  6) =    -17.56306  eV     1   --> A              
     e(  7 -  7) =    -17.56134  eV     1   --> A              
     e(  8 -  8) =    -17.56098  eV     1   --> A              
     e(  9 -  9) =    -17.54522  eV     1   --> A              
     e( 10 - 10) =    -17.54360  eV     1   --> A              
     e( 11 - 11) =    -17.53219  eV     1   --> A              
     e( 12 - 12) =    -17.53182  eV     1   --> A              
     e( 13 - 13) =    -17.53147  eV     1   --> A              
     e( 14 - 14) =    -17.53082  eV     1   --> A              
     e( 15 - 15) =    -17.51948  eV     1   --> A              
     e( 16 - 16) =    -17.51897  eV     1   --> A              
     e( 17 - 17) =    -17.50877  eV     1   --> A              
     e( 18 - 18) =    -17.50768  eV     1   --> A              
     e( 19 - 19) =    -17.50716  eV     1   --> A              
     e( 20 - 20) =    -17.50682  eV     1   --> A              
     e( 21 - 21) =     -9.29912  eV     1   --> A              
     e( 22 - 22) =     -9.08158  eV     1   --> A              
     e( 23 - 23) =     -8.98124  eV     1   --> A              
     e( 24 - 24) =     -8.89148  eV     1   --> A              
     e( 25 - 25) =     -7.98129  eV     1   --> A              
     e( 26 - 26) =     -7.75900  eV     1   --> A              
     e( 27 - 27) =     -6.41460  eV     1   --> A              
     e( 28 - 28) =     -6.31535  eV     1   --> A              
     e( 29 - 29) =     -4.90472  eV     1   --> A              
     e( 30 - 30) =     -4.83997  eV     1   --> A              
     e( 31 - 31) =     -3.30651  eV     1   --> A              
     e( 32 - 32) =     -2.97383  eV     1   --> A              
     e( 33 - 33) =      1.35353  eV     1   --> A              
     e( 34 - 34) =      1.41379  eV     1   --> A              
     e( 35 - 35) =      1.82227  eV     1   --> A              
     e( 36 - 36) =      1.93052  eV     1   --> A              
     e( 37 - 37) =      2.07994  eV     1   --> A              
     e( 38 - 38) =      2.26064  eV     1   --> A              
     e( 39 - 39) =      2.45514  eV     1   --> A              
     e( 40 - 40) =      2.64203  eV     1   --> A              
     e( 41 - 41) =      2.83795  eV     1   --> A              
     e( 42 - 42) =      2.86346  eV     1   --> A              
     e( 43 - 43) =      2.90489  eV     1   --> A              
     e( 44 - 44) =      3.00027  eV     1   --> A              
     e( 45 - 45) =      3.29435  eV     1   --> A              
     e( 46 - 46) =      3.37498  eV     1   --> A              
     e( 47 - 47) =      3.59263  eV     1   --> A              
     e( 48 - 48) =      3.73936  eV     1   --> A              
     e( 49 - 49) =      3.86641  eV     1   --> A              
     e( 50 - 50) =      4.03961  eV     1   --> A              
     e( 51 - 51) =      4.13747  eV     1   --> A              
     e( 52 - 52) =      4.22234  eV     1   --> A              
     e( 53 - 53) =      4.26645  eV     1   --> A              
     e( 54 - 54) =      4.33360  eV     1   --> A              
     e( 55 - 55) =      4.51306  eV     1   --> A              
     e( 56 - 56) =      4.76767  eV     1   --> A              
     e( 57 - 57) =      7.29132  eV     1   --> A              
     e( 58 - 58) =      7.49313  eV     1   --> A              
     e( 59 - 59) =      7.80164  eV     1   --> A              
     e( 60 - 60) =      8.08190  eV     1   --> A              
     e( 61 - 61) =      8.12981  eV     1   --> A              
     e( 62 - 62) =      8.32378  eV     1   --> A              
     e( 63 - 63) =      8.43784  eV     1   --> A              
     e( 64 - 64) =      8.87335  eV     1   --> A              
     e( 65 - 65) =      9.08288  eV     1   --> A              
     e( 66 - 66) =      9.44328  eV     1   --> A              
     e( 67 - 67) =      9.50977  eV     1   --> A              

 **************************************************************************

 **************************************************************************

                    xk=(   0.12500,   0.06252,   0.14389  )

     Band symmetry, C_1 (1)     point group:

     e(  1 -  1) =    -17.58257  eV     1   --> A              
     e(  2 -  2) =    -17.58205  eV     1   --> A              
     e(  3 -  3) =    -17.57425  eV     1   --> A              
     e(  4 -  4) =    -17.57401  eV     1   --> A              
     e(  5 -  5) =    -17.56351  eV     1   --> A              
     e(  6 -  6) =    -17.56326  eV     1   --> A              
     e(  7 -  7) =    -17.56120  eV     1   --> A              
     e(  8 -  8) =    -17.56107  eV     1   --> A              
     e(  9 -  9) =    -17.54480  eV     1   --> A              
     e( 10 - 10) =    -17.54413  eV     1   --> A              
     e( 11 - 11) =    -17.53180  eV     1   --> A              
     e( 12 - 12) =    -17.53170  eV     1   --> A              
     e( 13 - 13) =    -17.53155  eV     1   --> A              
     e( 14 - 14) =    -17.53118  eV     1   --> A              
     e( 15 - 15) =    -17.51930  eV     1   --> A              
     e( 16 - 16) =    -17.51913  eV     1   --> A              
     e( 17 - 17) =    -17.50848  eV     1   --> A              
     e( 18 - 18) =    -17.50808  eV     1   --> A              
     e( 19 - 20) =    -17.50699  eV     2   -->   2 A              
     e( 21 - 21) =     -9.24988  eV     1   --> A              
     e( 22 - 22) =     -9.16662  eV     1   --> A              
     e( 23 - 23) =     -8.93916  eV     1   --> A              
     e( 24 - 24) =     -8.90825  eV     1   --> A              
     e( 25 - 25) =     -7.91146  eV     1   --> A              
     e( 26 - 26) =     -7.82005  eV     1   --> A              
     e( 27 - 27) =     -6.38273  eV     1   --> A              
     e( 28 - 28) =     -6.34168  eV     1   --> A              
     e( 29 - 29) =     -4.89420  eV     1   --> A              
     e( 30 - 30) =     -4.86797  eV     1   --> A              
     e( 31 - 31) =     -3.20295  eV     1   --> A              
     e( 32 - 32) =     -3.06565  eV     1   --> A              
     e( 33 - 33) =      1.32122  eV     1   --> A              
     e( 34 - 34) =      1.34977  eV     1   --> A              
     e( 35 - 35) =      1.85608  eV     1   --> A              
     e( 36 - 36) =      1.91441  eV     1   --> A              
     e( 37 - 37) =      2.22788  eV     1   --> A              
     e( 38 - 38) =      2.37179  eV     1   --> A              
     e( 39 - 39) =      2.41768  eV     1   --> A              
     e( 40 - 40) =      2.56561  eV     1   --> A              
     e( 41 - 41) =      2.81790  eV     1   --> A              
     e( 42 - 42) =      2.86773  eV     1   --> A              
     e( 43 - 43) =      2.90701  eV     1   --> A              
     e( 44 - 44) =      2.93372  eV     1   --> A              
     e( 45 - 45) =      3.31367  eV     1   --> A              
     e( 46 - 46) =      3.39604  eV     1   --> A              
     e( 47 - 47) =      3.65761  eV     1   --> A              
     e( 48 - 48) =      3.73050  eV     1   --> A              
     e( 49 - 49) =      3.90732  eV     1   --> A              
     e( 50 - 50) =      3.96342  eV     1   --> A              
     e( 51 - 51) =      4.16764  eV     1   --> A              
     e( 52 - 52) =      4.18752  eV     1   --> A              
     e( 53 - 53) =      4.26521  eV     1   --> A              
     e( 54 - 54) =      4.29128  eV     1   --> A              
     e( 55 - 55) =      4.57601  eV     1   --> A              
     e( 56 - 56) =      4.67995  eV     1   --> A              
     e( 57 - 57) =      7.36718  eV     1   --> A              
     e( 58 - 58) =      7.45431  eV     1   --> A              
     e( 59 - 59) =      7.68469  eV     1   --> A              
     e( 60 - 60) =      7.81020  eV     1   --> A              
     e( 61 - 61) =      8.38141  eV     1   --> A              
     e( 62 - 62) =      8.52634  eV     1   --> A              
     e( 63 - 63) =      8.55969  eV     1   --> A              
     e( 64 - 64) =      8.77498  eV     1   --> A              
     e( 65 - 65) =      9.14810  eV     1   --> A              
     e( 66 - 66) =      9.35131  eV     1   --> A              
     e( 67 - 67) =      9.48119  eV     1   --> A              

 **************************************************************************

 **************************************************************************

                    xk=(   0.12500,   0.18756,   0.04796  )

     Band symmetry, C_1 (1)     point group:

     e(  1 -  1) =    -17.58256  eV     1   --> A              
     e(  2 -  2) =    -17.58205  eV     1   --> A              
     e(  3 -  3) =    -17.57431  eV     1   --> A              
     e(  4 -  4) =    -17.57406  eV     1   --> A              
     e(  5 -  5) =    -17.56347  eV     1   --> A              
     e(  6 -  6) =    -17.56321  eV     1   --> A              
     e(  7 -  7) =    -17.56123  eV     1   --> A              
     e(  8 -  8) =    -17.56107  eV     1   --> A              
     e(  9 -  9) =    -17.54478  eV     1   --> A              
     e( 10 - 10) =    -17.54408  eV     1   --> A              
     e( 11 - 11) =    -17.53196  eV     1   --> A              
     e( 12 - 13) =    -17.53164  eV     2   -->   2 A              
     e( 14 - 14) =    -17.53112  eV     1   --> A              
     e( 15 - 15) =    -17.51933  eV     1   --> A              
     e( 16 - 16) =    -17.51911  eV     1   --> A              
     e( 17 - 17) =    -17.50839  eV     1   --> A              
     e( 18 - 18) =    -17.50790  eV     1   --> A              
     e( 19 - 19) =    -17.50707  eV     1   --> A              
     e( 20 - 20) =    -17.50692  eV     1   --> A              
     e( 21 - 21) =     -9.21863  eV     1   --> A              
     e( 22 - 22) =     -9.10018  eV     1   --> A              
     e( 23 - 23) =     -9.01150  eV     1   --> A              
     e( 24 - 24) =     -8.94468  eV     1   --> A              
     e( 25 - 25) =     -7.91848  eV     1   --> A              
     e( 26 - 26) =     -7.82693  eV     1   --> A              
     e( 27 - 27) =     -6.36674  eV     1   --> A              
     e( 28 - 28) =     -6.32641  eV     1   --> A              
     e( 29 - 29) =     -4.89585  eV     1   --> A              
     e( 30 - 30) =     -4.86765  eV     1   --> A              
     e( 31 - 31) =     -3.19343  eV     1   --> A              
     e( 32 - 32) =     -3.05601  eV     1   --> A              
     e( 33 - 33) =      1.35366  eV     1   --> A              
     e( 34 - 34) =      1.39663  eV     1   --> A              
     e( 35 - 35) =      1.82963  eV     1   --> A              
     e( 36 - 36) =      1.87385  eV     1   --> A              
     e( 37 - 37) =      2.15498  eV     1   --> A              
     e( 38 - 38) =      2.22568  eV     1   --> A              
     e( 39 - 39) =      2.37843  eV     1   --> A              
     e( 40 - 40) =      2.54601  eV     1   --> A              
     e( 41 - 41) =      2.75646  eV     1   --> A              
     e( 42 - 42) =      2.83341  eV     1   --> A              
     e( 43 - 43) =      2.96632  eV     1   --> A              
     e( 44 - 44) =      3.01775  eV     1   --> A              
     e( 45 - 45) =      3.30766  eV     1   --> A              
     e( 46 - 46) =      3.55022  eV     1   --> A              
     e( 47 - 47) =      3.61061  eV     1   --> A              
     e( 48 - 48) =      3.68256  eV     1   --> A              
     e( 49 - 49) =      3.89473  eV     1   --> A              
     e( 50 - 50) =      3.94094  eV     1   --> A              
     e( 51 - 51) =      4.11870  eV     1   --> A              
     e( 52 - 52) =      4.21561  eV     1   --> A              
     e( 53 - 53) =      4.39747  eV     1   --> A              
     e( 54 - 54) =      4.40734  eV     1   --> A              
     e( 55 - 55) =      4.60793  eV     1   --> A              
     e( 56 - 56) =      4.69511  eV     1   --> A              
     e( 57 - 57) =      7.30299  eV     1   --> A              
     e( 58 - 58) =      7.39379  eV     1   --> A              
     e( 59 - 59) =      7.73823  eV     1   --> A              
     e( 60 - 60) =      7.91549  eV     1   --> A              
     e( 61 - 61) =      8.27217  eV     1   --> A              
     e( 62 - 62) =      8.41452  eV     1   --> A              
     e( 63 - 63) =      8.57370  eV     1   --> A              
     e( 64 - 64) =      8.75244  eV     1   --> A              
     e( 65 - 65) =      9.13546  eV     1   --> A              
     e( 66 - 66) =      9.32498  eV     1   --> A              
     e( 67 - 67) =      9.43755  eV     1   --> A              

 **************************************************************************

 **************************************************************************

                    xk=(   0.12500,   0.18756,   0.14389  )

     Band symmetry, C_1 (1)     point group:

     e(  1 -  1) =    -17.58239  eV     1   --> A              
     e(  2 -  2) =    -17.58219  eV     1   --> A              
     e(  3 -  4) =    -17.57423  eV     2   -->   2 A              
     e(  5 -  5) =    -17.56342  eV     1   --> A              
     e(  6 -  6) =    -17.56329  eV     1   --> A              
     e(  7 -  8) =    -17.56119  eV     2   -->   2 A              
     e(  9 -  9) =    -17.54461  eV     1   --> A              
     e( 10 - 10) =    -17.54431  eV     1   --> A              
     e( 11 - 11) =    -17.53174  eV     1   --> A              
     e( 12 - 13) =    -17.53163  eV     2   -->   2 A              
     e( 14 - 14) =    -17.53139  eV     1   --> A              
     e( 15 - 16) =    -17.51922  eV     2   -->   2 A              
     e( 17 - 17) =    -17.50827  eV     1   --> A              
     e( 18 - 18) =    -17.50806  eV     1   --> A              
     e( 19 - 20) =    -17.50704  eV     2   -->   2 A              
     e( 21 - 21) =     -9.18513  eV     1   --> A              
     e( 22 - 22) =     -9.13540  eV     1   --> A              
     e( 23 - 23) =     -8.99514  eV     1   --> A              
     e( 24 - 24) =     -8.96659  eV     1   --> A              
     e( 25 - 25) =     -7.88715  eV     1   --> A              
     e( 26 - 26) =     -7.84942  eV     1   --> A              
     e( 27 - 27) =     -6.35460  eV     1   --> A              
     e( 28 - 28) =     -6.33788  eV     1   --> A              
     e( 29 - 29) =     -4.88854  eV     1   --> A              
     e( 30 - 30) =     -4.87678  eV     1   --> A              
     e( 31 - 31) =     -3.15699  eV     1   --> A              
     e( 32 - 32) =     -3.10007  eV     1   --> A              
     e( 33 - 33) =      1.36883  eV     1   --> A              
     e( 34 - 34) =      1.40269  eV     1   --> A              
     e( 35 - 35) =      1.78196  eV     1   --> A              
     e( 36 - 36) =      1.82670  eV     1   --> A              
     e( 37 - 37) =      2.24356  eV     1   --> A              
     e( 38 - 38) =      2.31834  eV     1   --> A              
     e( 39 - 39) =      2.50096  eV     1   --> A              
     e( 40 - 40) =      2.55270  eV     1   --> A              
     e( 41 - 41) =      2.76984  eV     1   --> A              
     e( 42 - 42) =      2.79477  eV     1   --> A              
     e( 43 - 43) =      2.93398  eV     1   --> A              
     e( 44 - 44) =      2.95092  eV     1   --> A              
     e( 45 - 45) =      3.30897  eV     1   --> A              
     e( 46 - 46) =      3.42380  eV     1   --> A              
     e( 47 - 47) =      3.50811  eV     1   --> A              
     e( 48 - 48) =      3.55963  eV     1   --> A              
     e( 49 - 49) =      3.94000  eV     1   --> A              
     e( 50 - 50) =      3.97512  eV     1   --> A              
     e( 51 - 51) =      4.25361  eV     1   --> A              
     e( 52 - 52) =      4.28670  eV     1   --> A              
     e( 53 - 53) =      4.39890  eV     1   --> A              
     e( 54 - 54) =      4.41225  eV     1   --> A              
     e( 55 - 55) =      4.58877  eV     1   --> A              
     e( 56 - 56) =      4.62229  eV     1   --> A              
     e( 57 - 57) =      7.35488  eV     1   --> A              
     e( 58 - 58) =      7.38961  eV     1   --> A              
     e( 59 - 59) =      7.84338  eV     1   --> A              
     e( 60 - 60) =      8.04508  eV     1   --> A              
     e( 61 - 61) =      8.11516  eV     1   --> A              
     e( 62 - 62) =      8.32804  eV     1   --> A              
     e( 63 - 63) =      8.57307  eV     1   --> A              
     e( 64 - 64) =      8.66938  eV     1   --> A              
     e( 65 - 65) =      9.22660  eV     1   --> A              
     e( 66 - 66) =      9.31776  eV     1   --> A              
     e( 67 - 67) =      9.49345  eV     1   --> A              

 **************************************************************************

 **************************************************************************

                    xk=(   0.37500,   0.06252,   0.04796  )

     Band symmetry, C_1 (1)     point group:

     e(  1 -  1) =    -17.58121  eV     1   --> A              
     e(  2 -  2) =    -17.58083  eV     1   --> A              
     e(  3 -  3) =    -17.58051  eV     1   --> A              
     e(  4 -  4) =    -17.57954  eV     1   --> A              
     e(  5 -  5) =    -17.55596  eV     1   --> A              
     e(  6 -  6) =    -17.55572  eV     1   --> A              
     e(  7 -  7) =    -17.55548  eV     1   --> A              
     e(  8 -  8) =    -17.55510  eV     1   --> A              
     e(  9 -  9) =    -17.54335  eV     1   --> A              
     e( 10 - 10) =    -17.54190  eV     1   --> A              
     e( 11 - 11) =    -17.53572  eV     1   --> A              
     e( 12 - 12) =    -17.53548  eV     1   --> A              
     e( 13 - 13) =    -17.53227  eV     1   --> A              
     e( 14 - 14) =    -17.53177  eV     1   --> A              
     e( 15 - 15) =    -17.52568  eV     1   --> A              
     e( 16 - 16) =    -17.52523  eV     1   --> A              
     e( 17 - 17) =    -17.50363  eV     1   --> A              
     e( 18 - 18) =    -17.50282  eV     1   --> A              
     e( 19 - 19) =    -17.50240  eV     1   --> A              
     e( 20 - 20) =    -17.50169  eV     1   --> A              
     e( 21 - 21) =     -8.91691  eV     1   --> A              
     e( 22 - 22) =     -8.84603  eV     1   --> A              
     e( 23 - 23) =     -8.75703  eV     1   --> A              
     e( 24 - 24) =     -8.73588  eV     1   --> A              
     e( 25 - 25) =     -7.33980  eV     1   --> A              
     e( 26 - 26) =     -7.31150  eV     1   --> A              
     e( 27 - 27) =     -6.43839  eV     1   --> A              
     e( 28 - 28) =     -6.37598  eV     1   --> A              
     e( 29 - 29) =     -5.01641  eV     1   --> A              
     e( 30 - 30) =     -4.97369  eV     1   --> A              
     e( 31 - 31) =     -4.01321  eV     1   --> A              
     e( 32 - 32) =     -3.93042  eV     1   --> A              
     e( 33 - 33) =      0.89157  eV     1   --> A              
     e( 34 - 34) =      0.94952  eV     1   --> A              
     e( 35 - 35) =      1.12275  eV     1   --> A              
     e( 36 - 36) =      1.15968  eV     1   --> A              
     e( 37 - 37) =      1.58816  eV     1   --> A              
     e( 38 - 38) =      1.77385  eV     1   --> A              
     e( 39 - 39) =      2.06908  eV     1   --> A              
     e( 40 - 40) =      2.27819  eV     1   --> A              
     e( 41 - 41) =      2.48507  eV     1   --> A              
     e( 42 - 42) =      2.72878  eV     1   --> A              
     e( 43 - 43) =      2.85458  eV     1   --> A              
     e( 44 - 44) =      3.02651  eV     1   --> A              
     e( 45 - 45) =      3.16952  eV     1   --> A              
     e( 46 - 46) =      3.30675  eV     1   --> A              
     e( 47 - 47) =      3.46388  eV     1   --> A              
     e( 48 - 48) =      3.63955  eV     1   --> A              
     e( 49 - 49) =      3.66777  eV     1   --> A              
     e( 50 - 50) =      3.74860  eV     1   --> A              
     e( 51 - 51) =      3.87431  eV     1   --> A              
     e( 52 - 52) =      3.94876  eV     1   --> A              
     e( 53 - 53) =      4.12795  eV     1   --> A              
     e( 54 - 54) =      4.14840  eV     1   --> A              
     e( 55 - 55) =      4.28867  eV     1   --> A              
     e( 56 - 56) =      4.42740  eV     1   --> A              
     e( 57 - 57) =      7.64809  eV     1   --> A              
     e( 58 - 58) =      8.01083  eV     1   --> A              
     e( 59 - 59) =      8.26581  eV     1   --> A              
     e( 60 - 60) =      8.61772  eV     1   --> A              
     e( 61 - 61) =      8.66578  eV     1   --> A              
     e( 62 - 62) =      8.74619  eV     1   --> A              
     e( 63 - 63) =      8.86495  eV     1   --> A              
     e( 64 - 64) =      9.04759  eV     1   --> A              
     e( 65 - 65) =      9.39748  eV     1   --> A              
     e( 66 - 66) =      9.50799  eV     1   --> A              
     e( 67 - 67) =      9.77347  eV     1   --> A              

 **************************************************************************

 **************************************************************************

                    xk=(   0.37500,   0.06252,   0.14389  )

     Band symmetry, C_1 (1)     point group:

     e(  1 -  2) =    -17.58117  eV     2   -->   2 A              
     e(  3 -  3) =    -17.58011  eV     1   --> A              
     e(  4 -  4) =    -17.57976  eV     1   --> A              
     e(  5 -  5) =    -17.55592  eV     1   --> A              
     e(  6 -  6) =    -17.55580  eV     1   --> A              
     e(  7 -  7) =    -17.55537  eV     1   --> A              
     e(  8 -  8) =    -17.55521  eV     1   --> A              
     e(  9 -  9) =    -17.54294  eV     1   --> A              
     e( 10 - 10) =    -17.54235  eV     1   --> A              
     e( 11 - 11) =    -17.53567  eV     1   --> A              
     e( 12 - 12) =    -17.53554  eV     1   --> A              
     e( 13 - 13) =    -17.53211  eV     1   --> A              
     e( 14 - 14) =    -17.53194  eV     1   --> A              
     e( 15 - 15) =    -17.52552  eV     1   --> A              
     e( 16 - 16) =    -17.52533  eV     1   --> A              
     e( 17 - 17) =    -17.50347  eV     1   --> A              
     e( 18 - 18) =    -17.50318  eV     1   --> A              
     e( 19 - 19) =    -17.50204  eV     1   --> A              
     e( 20 - 20) =    -17.50180  eV     1   --> A              
     e( 21 - 21) =     -8.89756  eV     1   --> A              
     e( 22 - 22) =     -8.86854  eV     1   --> A              
     e( 23 - 23) =     -8.74951  eV     1   --> A              
     e( 24 - 24) =     -8.74108  eV     1   --> A              
     e( 25 - 25) =     -7.33266  eV     1   --> A              
     e( 26 - 26) =     -7.32092  eV     1   --> A              
     e( 27 - 27) =     -6.41637  eV     1   --> A              
     e( 28 - 28) =     -6.39048  eV     1   --> A              
     e( 29 - 29) =     -5.00867  eV     1   --> A              
     e( 30 - 30) =     -4.99089  eV     1   --> A              
     e( 31 - 31) =     -3.98695  eV     1   --> A              
     e( 32 - 32) =     -3.95276  eV     1   --> A              
     e( 33 - 33) =      0.91566  eV     1   --> A              
     e( 34 - 34) =      0.93039  eV     1   --> A              
     e( 35 - 35) =      1.21643  eV     1   --> A              
     e( 36 - 36) =      1.22536  eV     1   --> A              
     e( 37 - 37) =      1.62578  eV     1   --> A              
     e( 38 - 38) =      1.65737  eV     1   --> A              
     e( 39 - 39) =      1.99830  eV     1   --> A              
     e( 40 - 40) =      2.05876  eV     1   --> A              
     e( 41 - 41) =      2.51828  eV     1   --> A              
     e( 42 - 42) =      2.61455  eV     1   --> A              
     e( 43 - 43) =      2.93147  eV     1   --> A              
     e( 44 - 44) =      3.00238  eV     1   --> A              
     e( 45 - 45) =      3.34373  eV     1   --> A              
     e( 46 - 46) =      3.37361  eV     1   --> A              
     e( 47 - 47) =      3.45539  eV     1   --> A              
     e( 48 - 48) =      3.60790  eV     1   --> A              
     e( 49 - 49) =      3.71707  eV     1   --> A              
     e( 50 - 50) =      3.79365  eV     1   --> A              
     e( 51 - 51) =      3.88957  eV     1   --> A              
     e( 52 - 52) =      3.95746  eV     1   --> A              
     e( 53 - 53) =      4.10447  eV     1   --> A              
     e( 54 - 54) =      4.15887  eV     1   --> A              
     e( 55 - 55) =      4.28916  eV     1   --> A              
     e( 56 - 56) =      4.42420  eV     1   --> A              
     e( 57 - 57) =      7.71297  eV     1   --> A              
     e( 58 - 58) =      7.87239  eV     1   --> A              
     e( 59 - 59) =      8.26566  eV     1   --> A              
     e( 60 - 60) =      8.41035  eV     1   --> A              
     e( 61 - 61) =      8.67852  eV     1   --> A              
     e( 62 - 62) =      8.78038  eV     1   --> A              
     e( 63 - 63) =      8.89804  eV     1   --> A              
     e( 64 - 64) =      8.95036  eV     1   --> A              
     e( 65 - 65) =      9.44604  eV     1   --> A              
     e( 66 - 66) =      9.60169  eV     1   --> A              
     e( 67 - 67) =      9.86364  eV     1   --> A              

 **************************************************************************

 **************************************************************************

                    xk=(   0.37500,   0.18756,   0.04796  )

     Band symmetry, C_1 (1)     point group:

     e(  1 -  1) =    -17.58110  eV     1   --> A              
     e(  2 -  2) =    -17.58090  eV     1   --> A              
     e(  3 -  3) =    -17.58031  eV     1   --> A              
     e(  4 -  4) =    -17.57988  eV     1   --> A              
     e(  5 -  5) =    -17.55592  eV     1   --> A              
     e(  6 -  6) =    -17.55575  eV     1   --> A              
     e(  7 -  7) =    -17.55554  eV     1   --> A              
     e(  8 -  8) =    -17.55528  eV     1   --> A              
     e(  9 -  9) =    -17.54294  eV     1   --> A              
     e( 10 - 10) =    -17.54238  eV     1   --> A              
     e( 11 - 11) =    -17.53567  eV     1   --> A              
     e( 12 - 12) =    -17.53556  eV     1   --> A              
     e( 13 - 13) =    -17.53215  eV     1   --> A              
     e( 14 - 14) =    -17.53193  eV     1   --> A              
     e( 15 - 15) =    -17.52557  eV     1   --> A              
     e( 16 - 16) =    -17.52539  eV     1   --> A              
     e( 17 - 17) =    -17.50337  eV     1   --> A              
     e( 18 - 18) =    -17.50298  eV     1   --> A              
     e( 19 - 19) =    -17.50228  eV     1   --> A              
     e( 20 - 20) =    -17.50195  eV     1   --> A              
     e( 21 - 21) =     -8.87153  eV     1   --> A              
     e( 22 - 22) =     -8.81744  eV     1   --> A              
     e( 23 - 23) =     -8.80199  eV     1   --> A              
     e( 24 - 24) =     -8.76834  eV     1   --> A              
     e( 25 - 25) =     -7.33373  eV     1   --> A              
     e( 26 - 26) =     -7.32179  eV     1   --> A              
     e( 27 - 27) =     -6.41594  eV     1   --> A              
     e( 28 - 28) =     -6.38968  eV     1   --> A              
     e( 29 - 29) =     -5.00698  eV     1   --> A              
     e( 30 - 30) =     -4.98892  eV     1   --> A              
     e( 31 - 31) =     -3.99188  eV     1   --> A              
     e( 32 - 32) =     -3.95750  eV     1   --> A              
     e( 33 - 33) =      0.91598  eV     1   --> A              
     e( 34 - 34) =      1.00471  eV     1   --> A              
     e( 35 - 35) =      1.11464  eV     1   --> A              
     e( 36 - 36) =      1.19799  eV     1   --> A              
     e( 37 - 37) =      1.73227  eV     1   --> A              
     e( 38 - 38) =      1.86153  eV     1   --> A              
     e( 39 - 39) =      1.97469  eV     1   --> A              
     e( 40 - 40) =      2.04536  eV     1   --> A              
     e( 41 - 41) =      2.54101  eV     1   --> A              
     e( 42 - 42) =      2.66230  eV     1   --> A              
     e( 43 - 43) =      2.81029  eV     1   --> A              
     e( 44 - 44) =      3.07184  eV     1   --> A              
     e( 45 - 45) =      3.16258  eV     1   --> A              
     e( 46 - 46) =      3.47295  eV     1   --> A              
     e( 47 - 47) =      3.53201  eV     1   --> A              
     e( 48 - 48) =      3.55575  eV     1   --> A              
     e( 49 - 49) =      3.72089  eV     1   --> A              
     e( 50 - 50) =      3.75629  eV     1   --> A              
     e( 51 - 51) =      3.85913  eV     1   --> A              
     e( 52 - 52) =      3.93907  eV     1   --> A              
     e( 53 - 53) =      4.05523  eV     1   --> A              
     e( 54 - 54) =      4.14588  eV     1   --> A              
     e( 55 - 55) =      4.22553  eV     1   --> A              
     e( 56 - 56) =      4.29986  eV     1   --> A              
     e( 57 - 57) =      7.62469  eV     1   --> A              
     e( 58 - 58) =      7.87211  eV     1   --> A              
     e( 59 - 59) =      8.45899  eV     1   --> A              
     e( 60 - 60) =      8.50362  eV     1   --> A              
     e( 61 - 61) =      8.61254  eV     1   --> A              
     e( 62 - 62) =      8.77316  eV     1   --> A              
     e( 63 - 63) =      8.80918  eV     1   --> A              
     e( 64 - 64) =      8.92656  eV     1   --> A              
     e( 65 - 65) =      9.52127  eV     1   --> A              
     e( 66 - 66) =      9.54982  eV     1   --> A              
     e( 67 - 67) =      9.88426  eV     1   --> A              

 **************************************************************************

 **************************************************************************

                    xk=(   0.37500,   0.18756,   0.14389  )

     Band symmetry, C_1 (1)     point group:

     e(  1 -  2) =    -17.58102  eV     2   -->   2 A              
     e(  3 -  3) =    -17.58014  eV     1   --> A              
     e(  4 -  4) =    -17.57996  eV     1   --> A              
     e(  5 -  5) =    -17.55580  eV     1   --> A              
     e(  6 -  6) =    -17.55565  eV     1   --> A              
     e(  7 -  7) =    -17.55555  eV     1   --> A              
     e(  8 -  8) =    -17.55537  eV     1   --> A              
     e(  9 -  9) =    -17.54277  eV     1   --> A              
     e( 10 - 10) =    -17.54250  eV     1   --> A              
     e( 11 - 12) =    -17.53562  eV     2   -->   2 A              
     e( 13 - 14) =    -17.53206  eV     2   -->   2 A              
     e( 15 - 16) =    -17.52548  eV     2   -->   2 A              
     e( 17 - 17) =    -17.50324  eV     1   --> A              
     e( 18 - 18) =    -17.50308  eV     1   --> A              
     e( 19 - 19) =    -17.50213  eV     1   --> A              
     e( 20 - 20) =    -17.50198  eV     1   --> A              
     e( 21 - 21) =     -8.85759  eV     1   --> A              
     e( 22 - 22) =     -8.83655  eV     1   --> A              
     e( 23 - 23) =     -8.78909  eV     1   --> A              
     e( 24 - 24) =     -8.77652  eV     1   --> A              
     e( 25 - 25) =     -7.33057  eV     1   --> A              
     e( 26 - 26) =     -7.32562  eV     1   --> A              
     e( 27 - 27) =     -6.40779  eV     1   --> A              
     e( 28 - 28) =     -6.39692  eV     1   --> A              
     e( 29 - 29) =     -4.99996  eV     1   --> A              
     e( 30 - 30) =     -4.99207  eV     1   --> A              
     e( 31 - 31) =     -3.98397  eV     1   --> A              
     e( 32 - 32) =     -3.96959  eV     1   --> A              
     e( 33 - 33) =      0.92801  eV     1   --> A              
     e( 34 - 34) =      0.95944  eV     1   --> A              
     e( 35 - 35) =      1.13679  eV     1   --> A              
     e( 36 - 36) =      1.17738  eV     1   --> A              
     e( 37 - 37) =      1.76048  eV     1   --> A              
     e( 38 - 38) =      1.80436  eV     1   --> A              
     e( 39 - 39) =      2.01343  eV     1   --> A              
     e( 40 - 40) =      2.05083  eV     1   --> A              
     e( 41 - 41) =      2.60315  eV     1   --> A              
     e( 42 - 42) =      2.71927  eV     1   --> A              
     e( 43 - 43) =      2.90974  eV     1   --> A              
     e( 44 - 44) =      3.06885  eV     1   --> A              
     e( 45 - 45) =      3.25106  eV     1   --> A              
     e( 46 - 46) =      3.30398  eV     1   --> A              
     e( 47 - 47) =      3.39960  eV     1   --> A              
     e( 48 - 48) =      3.48091  eV     1   --> A              
     e( 49 - 49) =      3.69397  eV     1   --> A              
     e( 50 - 50) =      3.73936  eV     1   --> A              
     e( 51 - 51) =      3.86222  eV     1   --> A              
     e( 52 - 52) =      3.93549  eV     1   --> A              
     e( 53 - 53) =      4.05477  eV     1   --> A              
     e( 54 - 54) =      4.10570  eV     1   --> A              
     e( 55 - 55) =      4.30860  eV     1   --> A              
     e( 56 - 56) =      4.35460  eV     1   --> A              
     e( 57 - 57) =      7.83652  eV     1   --> A              
     e( 58 - 58) =      7.98908  eV     1   --> A              
     e( 59 - 59) =      8.34405  eV     1   --> A              
     e( 60 - 60) =      8.45320  eV     1   --> A              
     e( 61 - 61) =      8.71154  eV     1   --> A              
     e( 62 - 62) =      8.74824  eV     1   --> A              
     e( 63 - 63) =      8.81324  eV     1   --> A              
     e( 64 - 64) =      8.87784  eV     1   --> A              
     e( 65 - 65) =      9.46100  eV     1   --> A              
     e( 66 - 66) =      9.53277  eV     1   --> A              
     e( 67 - 67) =      9.83002  eV     1   --> A              

 **************************************************************************

     BANDS        :   1m26.37s CPU   1m 2.62s WALL


   This run was terminated on:   5:27:57  29Jul2025            

=------------------------------------------------------------------------------=
   JOB DONE.
=------------------------------------------------------------------------------=
