
     Program PWSCF v.7.4.1 starts on 29Jul2025 at  4:53: 9 

     This program is part of the open-source Quantum ESPRESSO suite
     for quantum simulation of materials; please cite
         "P. Giannozzi et al., J. Phys.:Condens. Matter 21 395502 (2009);
         "P. Giannozzi et al., J. Phys.:Condens. Matter 29 465901 (2017);
         "P. Giannozzi et al., J. Chem. Phys. 152 154105 (2020);
          URL http://www.quantum-espresso.org", 
     in publications or presentations arising from this work. More details at
     http://www.quantum-espresso.org/quote

     Parallel version (MPI & OpenMP), running on      32 processor cores
     Number of MPI processes:                 1
     Threads/MPI process:                    32

     MPI processes distributed on     1 nodes
     3165 MiB available memory on the printing compute node when the environment starts

     Waiting for input...
     Reading input from standard input
Warning: card &IONS ignored
Warning: card / ignored
Warning: card &CELL ignored
Warning: card / ignored

     Current dimensions of program PWSCF are:
     Max number of different atomic species (ntypx) = 10
     Max number of k-points (npk) =  40000
     Max angular momentum in pseudopotentials (lmaxx) =  4
     file Bi.pbe-dn-kjpaw_psl.1.0.0.UPF: wavefunction(s)  6P 5D renormalized
     file S.pbe-n-kjpaw_psl.1.0.0.UPF: wavefunction(s)  3S 3P renormalized
     file Cl.pbe-n-kjpaw_psl.1.0.0.UPF: wavefunction(s)  3S 3P renormalized

     IMPORTANT: XC functional enforced from input :
     Exchange-correlation= VDW-DF
                           (   1   4   4   0   1   0   0)
     Any further DFT definition will be discarded
     Please, verify this is what you really want


     Atomic positions and unit cell read from directory:
     ../out/BiSCl.save/

     Message from routine setup:
     using ibrav=0 with symmetry is DISCOURAGED, use correct ibrav instead

     Subspace diagonalization in iterative solution of the eigenvalue problem:
     a serial algorithm will be used


     G-vector sticks info
     --------------------
     sticks:   dense  smooth     PW     G-vecs:    dense   smooth      PW
     Sum        3701    1855    527               310147   109643   16733

     Using Slab Decomposition



     bravais-lattice index     =            0
     lattice parameter (alat)  =       7.6083  a.u.
     unit-cell volume          =    2294.9197 (a.u.)^3
     number of atoms/cell      =           12
     number of atomic types    =            3
     number of electrons       =       112.00
     number of Kohn-Sham states=           36
     kinetic-energy cutoff     =      50.0000  Ry
     charge density cutoff     =     400.0000  Ry
     Exchange-correlation= VDW-DF
                           (   1   4   4   0   1   0   0)

     celldm(1)=   7.608340  celldm(2)=   0.000000  celldm(3)=   0.000000
     celldm(4)=   0.000000  celldm(5)=   0.000000  celldm(6)=   0.000000

     crystal axes: (cart. coord. in units of alat)
               a(1) = (   1.000000   0.000000   0.000000 )  
               a(2) = (   0.000000   1.999334   0.000000 )  
               a(3) = (   0.000000   0.000000   2.606229 )  

     reciprocal axes: (cart. coord. in units 2 pi/alat)
               b(1) = (  1.000000  0.000000  0.000000 )  
               b(2) = (  0.000000  0.500167  0.000000 )  
               b(3) = (  0.000000  0.000000  0.383696 )  


     PseudoPot. # 1 for Bi read from file:
     ./pseudo/Bi.pbe-dn-kjpaw_psl.1.0.0.UPF
     MD5 check sum: 266ded784ae3bc462508ed03f0f37963
     Pseudo is Projector augmented-wave + core cor, Zval = 15.0
     Generated using &quot;atomic&quot; code by A. Dal Corso  v.6.2.2
     Shape of augmentation charge: PSQ
     Using radial grid of 1283 points,  6 beta functions with: 
                l(1) =   0
                l(2) =   0
                l(3) =   1
                l(4) =   1
                l(5) =   2
                l(6) =   2
     Q(r) pseudized with 0 coefficients 


     PseudoPot. # 2 for S  read from file:
     ./pseudo/S.pbe-n-kjpaw_psl.1.0.0.UPF
     MD5 check sum: fb45dfebcf3e72a4e1bd4a866ec2e262
     Pseudo is Projector augmented-wave + core cor, Zval =  6.0
     Generated using &quot;atomic&quot; code by A. Dal Corso  v.6.3
     Shape of augmentation charge: PSQ
     Using radial grid of 1151 points,  6 beta functions with: 
                l(1) =   0
                l(2) =   0
                l(3) =   1
                l(4) =   1
                l(5) =   2
                l(6) =   2
     Q(r) pseudized with 0 coefficients 


     PseudoPot. # 3 for Cl read from file:
     ./pseudo/Cl.pbe-n-kjpaw_psl.1.0.0.UPF
     MD5 check sum: 530da96d25dcb7781b0586ca00827062
     Pseudo is Projector augmented-wave + core cor, Zval =  7.0
     Generated using &quot;atomic&quot; code by A. Dal Corso  v.6.3
     Shape of augmentation charge: PSQ
     Using radial grid of 1157 points,  6 beta functions with: 
                l(1) =   0
                l(2) =   0
                l(3) =   1
                l(4) =   1
                l(5) =   2
                l(6) =   2
     Q(r) pseudized with 0 coefficients 


     atomic species   valence    mass     pseudopotential
     Bi               15.00   208.98040     Bi( 1.00)
     S                 6.00    32.06000     S ( 1.00)
     Cl                7.00    35.45000     Cl( 1.00)

      8 Sym. Ops., with inversion, found ( 6 have fractional translation)



   Cartesian axes

     site n.     atom                  positions (alat units)
         1        Bi     tau(   1) = (   0.2500000   1.2416841   1.6517131  )
         2        Bi     tau(   2) = (   0.7500000   0.7576495   0.9545156  )
         3        Bi     tau(   3) = (   0.2500000   0.2420173   2.2576300  )
         4        Bi     tau(   4) = (   0.7500000   1.7573163   0.3485987  )
         5        S      tau(   5) = (   0.7500000   1.3594049   1.2026964  )
         6        S      tau(   6) = (   0.2500000   1.6395955   2.5058108  )
         7        S      tau(   7) = (   0.7500000   0.3597381   0.1004180  )
         8        S      tau(   8) = (   0.2500000   0.6399287   1.4035324  )
         9        Cl     tau(   9) = (   0.2500000   1.0558961   0.5305031  )
        10        Cl     tau(  10) = (   0.7500000   1.9431043   1.8336175  )
        11        Cl     tau(  11) = (   0.2500000   0.0562293   0.7726113  )
        12        Cl     tau(  12) = (   0.7500000   0.9434375   2.0757257  )

     number of k points=    13
                       cart. coord. in units 2pi/alat
        k(    1) = (   0.0000000   0.0000000   0.0000000), wk =   0.1538462
        k(    2) = (   0.5000000   0.0000000   0.0000000), wk =   0.1538462
        k(    3) = (   0.5000000   0.2500833   0.0000000), wk =   0.1538462
        k(    4) = (   0.0000000   0.2500833   0.0000000), wk =   0.1538462
        k(    5) = (   0.0000000   0.0000000   0.0000000), wk =   0.1538462
        k(    6) = (   0.0000000   0.0000000   0.1918481), wk =   0.1538462
        k(    7) = (   0.5000000   0.0000000   0.1918481), wk =   0.1538462
        k(    8) = (   0.5000000   0.2500833   0.1918481), wk =   0.1538462
        k(    9) = (   0.0000000   0.2500833   0.1918481), wk =   0.1538462
        k(   10) = (   0.0000000   0.0000000   0.1918481), wk =   0.1538462
        k(   11) = (   0.0000000   0.2500833   0.0000000), wk =   0.1538462
        k(   12) = (   0.0000000   0.2500833   0.1918481), wk =   0.1538462
        k(   13) = (   0.5000000   0.2500833   0.0000000), wk =   0.1538462

     Dense  grid:   310147 G-vectors     FFT dimensions: (  50, 100, 128)

     Smooth grid:   109643 G-vectors     FFT dimensions: (  36,  72,  90)

     Estimated max dynamical RAM per process >       1.04 GB

     The potential is recalculated from file :
     ../out/BiSCl.save/charge-density



     %%%%%%%%%%%%%%%%%%%%%%%%%%%%%%%%%%%%%%%%%%%%%%%%%%%%%%%%%%%%%%%%%%%%%%%%
     %                                                                      %
     % You are using vdW-DF, which was implemented by the Thonhauser group. %
     % Please cite the following two papers that made this development      %
     % possible and the two reviews that describe the various versions:     %
     %                                                                      %
     %   T. Thonhauser et al., PRL 115, 136402 (2015).                      %
     %   T. Thonhauser et al., PRB 76, 125112 (2007).                       %
     %   K. Berland et al., Rep. Prog. Phys. 78, 066501 (2015).             %
     %   D.C. Langreth et al., J. Phys.: Condens. Matter 21, 084203 (2009). %
     %                                                                      %
     % If you are calculating stress with vdW-DF, please also cite:         %
     %                                                                      %
     %   R. Sabatini et al., J. Phys.: Condens. Matter 24, 424209 (2012).   %
     %                                                                      %
     %%%%%%%%%%%%%%%%%%%%%%%%%%%%%%%%%%%%%%%%%%%%%%%%%%%%%%%%%%%%%%%%%%%%%%%%

     %%%%%%%%%%%%%%%%%%%%%%%%%%%%%%%%%%%%%%%%%%%%%%%%%%%%%%%%%%%%%%%%%%%%%%%%
     %                                                                      %
     %  vdW-DF NEWS:                                                        %
     %                                                                      %
     %  * vdW-DF3 is now available. DOI: 10.1021/acs.jctc.0c00471           %
     %    use with input_dft = 'vdW-DF3-opt1' or 'vdW-DF3-opt2'             %
     %                                                                      %
     %  * Unscreened and range-separated hybrid vdW-DF-cx functionals       %
     %    DOI: 10.1063/1.4986522 and 10.1088/1361-648X/ac2ad2               %
     %    use with input_dft = 'vdW-DF-cx0'    and 'vdW-DF-ahcx'            %
     %  * Unscreened and range-separated hybrid vdW-DF2-b86r functionals    %
     %    DOI: 10.1063/1.4986522 and DOI: 10.1103/PhysRevX.12.041003        %
     %    use with input_dft = 'vdW-DF2-br0' and 'vdW-DF2-ahbr'             %
     %                                                                      %
     %%%%%%%%%%%%%%%%%%%%%%%%%%%%%%%%%%%%%%%%%%%%%%%%%%%%%%%%%%%%%%%%%%%%%%%%


     Starting wfcs are   68 randomized atomic wfcs
     Checking if some PAW data can be deallocated... 

     Band Structure Calculation
     Davidson diagonalization with overlap

     ethr =  8.93E-10,  avg # of iterations = 48.4

     total cpu time spent up to now is      193.5 secs

     End of band structure calculation

          k = 0.0000 0.0000 0.0000 ( 13715 PWs)   bands (ev):

   -17.5877 -17.5864 -17.5787 -17.5779 -17.5603 -17.5597 -17.5576 -17.5573
   -17.5466 -17.5448 -17.5326 -17.5306 -17.5305 -17.5302 -17.5190 -17.5183
   -17.5103 -17.5089 -17.5064 -17.5063  -9.3870  -9.1114  -9.0274  -8.9119
    -8.0823  -7.7916  -6.5010  -6.3648  -4.8298  -4.7205  -3.2746  -2.8109
     1.3419   1.4765   2.0623   2.1356

          k = 0.5000 0.0000 0.0000 ( 13646 PWs)   bands (ev):

   -17.5843 -17.5843 -17.5833 -17.5833 -17.5520 -17.5520 -17.5516 -17.5516
   -17.5404 -17.5404 -17.5397 -17.5397 -17.5291 -17.5291 -17.5286 -17.5286
   -17.5014 -17.5014 -17.5005 -17.5005  -8.8152  -8.8152  -8.7019  -8.7019
    -6.8972  -6.8972  -6.8235  -6.8235  -4.5757  -4.5757  -4.5209  -4.5209
     0.8175   0.8175   0.9793   0.9793

          k = 0.5000 0.2501 0.0000 ( 13700 PWs)   bands (ev):

   -17.5838 -17.5838 -17.5838 -17.5838 -17.5519 -17.5519 -17.5519 -17.5519
   -17.5401 -17.5401 -17.5401 -17.5401 -17.5289 -17.5289 -17.5289 -17.5289
   -17.5010 -17.5010 -17.5010 -17.5010  -8.7593  -8.7593  -8.7593  -8.7593
    -6.8591  -6.8591  -6.8591  -6.8591  -4.5554  -4.5554  -4.5554  -4.5554
     0.9421   0.9421   0.9421   0.9421

          k = 0.0000 0.2501 0.0000 ( 13742 PWs)   bands (ev):

   -17.5871 -17.5871 -17.5784 -17.5784 -17.5600 -17.5600 -17.5574 -17.5574
   -17.5458 -17.5458 -17.5316 -17.5316 -17.5303 -17.5303 -17.5187 -17.5187
   -17.5095 -17.5095 -17.5064 -17.5064  -9.2230  -9.2230  -9.0146  -9.0146
    -7.9401  -7.9401  -6.4027  -6.4027  -4.7940  -4.7940  -3.0131  -3.0131
     1.3291   1.3291   2.2330   2.2330

          k = 0.0000 0.0000 0.0000 ( 13715 PWs)   bands (ev):

   -17.5877 -17.5864 -17.5787 -17.5779 -17.5603 -17.5597 -17.5576 -17.5573
   -17.5466 -17.5448 -17.5326 -17.5306 -17.5305 -17.5302 -17.5190 -17.5183
   -17.5103 -17.5089 -17.5064 -17.5063  -9.3870  -9.1114  -9.0274  -8.9119
    -8.0823  -7.7916  -6.5010  -6.3648  -4.8298  -4.7205  -3.2746  -2.8109
     1.3419   1.4765   2.0623   2.1356

          k = 0.0000 0.0000 0.1918 ( 13740 PWs)   bands (ev):

   -17.5872 -17.5872 -17.5782 -17.5782 -17.5601 -17.5601 -17.5574 -17.5574
   -17.5458 -17.5458 -17.5315 -17.5315 -17.5303 -17.5303 -17.5186 -17.5186
   -17.5096 -17.5096 -17.5065 -17.5065  -9.2818  -9.2818  -8.9462  -8.9462
    -7.9301  -7.9301  -6.4285  -6.4285  -4.7916  -4.7916  -3.0304  -3.0304
     1.3199   1.3199   2.2234   2.2234

          k = 0.5000 0.0000 0.1918 ( 13688 PWs)   bands (ev):

   -17.5844 -17.5844 -17.5833 -17.5833 -17.5520 -17.5520 -17.5517 -17.5517
   -17.5405 -17.5405 -17.5397 -17.5397 -17.5292 -17.5292 -17.5286 -17.5286
   -17.5015 -17.5015 -17.5005 -17.5005  -8.8149  -8.8149  -8.7019  -8.7019
    -6.9280  -6.9280  -6.7911  -6.7911  -4.5662  -4.5662  -4.5342  -4.5342
     0.8182   0.8182   1.1023   1.1023

          k = 0.5000 0.2501 0.1918 ( 13688 PWs)   bands (ev):

   -17.5838 -17.5838 -17.5838 -17.5838 -17.5519 -17.5519 -17.5519 -17.5519
   -17.5401 -17.5401 -17.5401 -17.5401 -17.5289 -17.5289 -17.5289 -17.5289
   -17.5009 -17.5009 -17.5009 -17.5009  -8.7592  -8.7592  -8.7592  -8.7592
    -6.8596  -6.8596  -6.8596  -6.8596  -4.5543  -4.5543  -4.5543  -4.5543
     0.9264   0.9264   0.9264   0.9264

          k = 0.0000 0.2501 0.1918 ( 13724 PWs)   bands (ev):

   -17.5871 -17.5871 -17.5784 -17.5784 -17.5600 -17.5600 -17.5574 -17.5574
   -17.5458 -17.5458 -17.5316 -17.5316 -17.5303 -17.5303 -17.5186 -17.5186
   -17.5095 -17.5095 -17.5064 -17.5064  -9.2066  -9.2066  -9.0369  -9.0369
    -7.9321  -7.9321  -6.4034  -6.4034  -4.7942  -4.7942  -3.0211  -3.0211
     1.4034   1.4034   2.2852   2.2852

          k = 0.0000 0.0000 0.1918 ( 13740 PWs)   bands (ev):

   -17.5872 -17.5872 -17.5782 -17.5782 -17.5601 -17.5601 -17.5574 -17.5574
   -17.5458 -17.5458 -17.5315 -17.5315 -17.5303 -17.5303 -17.5186 -17.5186
   -17.5096 -17.5096 -17.5065 -17.5065  -9.2818  -9.2818  -8.9462  -8.9462
    -7.9301  -7.9301  -6.4285  -6.4285  -4.7916  -4.7916  -3.0304  -3.0304
     1.3199   1.3199   2.2234   2.2234

          k = 0.0000 0.2501 0.0000 ( 13742 PWs)   bands (ev):

   -17.5871 -17.5871 -17.5784 -17.5784 -17.5600 -17.5600 -17.5574 -17.5574
   -17.5458 -17.5458 -17.5316 -17.5316 -17.5303 -17.5303 -17.5187 -17.5187
   -17.5095 -17.5095 -17.5064 -17.5064  -9.2230  -9.2230  -9.0146  -9.0146
    -7.9401  -7.9401  -6.4027  -6.4027  -4.7940  -4.7940  -3.0131  -3.0131
     1.3291   1.3291   2.2330   2.2330

          k = 0.0000 0.2501 0.1918 ( 13724 PWs)   bands (ev):

   -17.5871 -17.5871 -17.5784 -17.5784 -17.5600 -17.5600 -17.5574 -17.5574
   -17.5458 -17.5458 -17.5316 -17.5316 -17.5303 -17.5303 -17.5186 -17.5186
   -17.5095 -17.5095 -17.5064 -17.5064  -9.2066  -9.2066  -9.0369  -9.0369
    -7.9321  -7.9321  -6.4034  -6.4034  -4.7942  -4.7942  -3.0211  -3.0211
     1.4034   1.4034   2.2852   2.2852

          k = 0.5000 0.2501 0.0000 ( 13700 PWs)   bands (ev):

   -17.5838 -17.5838 -17.5838 -17.5838 -17.5519 -17.5519 -17.5519 -17.5519
   -17.5401 -17.5401 -17.5401 -17.5401 -17.5289 -17.5289 -17.5289 -17.5289
   -17.5010 -17.5010 -17.5010 -17.5010  -8.7593  -8.7593  -8.7593  -8.7593
    -6.8591  -6.8591  -6.8591  -6.8591  -4.5554  -4.5554  -4.5554  -4.5554
     0.9421   0.9421   0.9421   0.9421

     Writing all to output data dir ../out/BiSCl.save/ :
     XML data file, pseudopotentials, collected wavefunctions

     init_run     :     73.19s CPU     57.05s WALL (       1 calls)
     electrons    :   2838.08s CPU    136.26s WALL (       1 calls)

     Called by init_run:
     wfcinit      :      0.00s CPU      0.00s WALL (       1 calls)
     potinit      :     67.84s CPU     54.70s WALL (       1 calls)
     hinit0       :      1.21s CPU      0.52s WALL (       1 calls)

     Called by electrons:
     c_bands      :   2838.08s CPU    136.26s WALL (       1 calls)
     v_of_rho     :     54.22s CPU     53.92s WALL (       1 calls)
     newd         :      3.65s CPU      1.74s WALL (       1 calls)
     PAW_pot      :     13.43s CPU      0.76s WALL (       1 calls)
     vdW_kernel   :     52.69s CPU     52.70s WALL (       1 calls)

     Called by c_bands:
     init_us_2    :      4.09s CPU      0.36s WALL (      13 calls)
     cegterg      :   2715.49s CPU    131.21s WALL (      38 calls)

     Called by *egterg:
     cdiaghg      :     11.31s CPU      1.39s WALL (     642 calls)
     h_psi        :   2082.30s CPU     85.05s WALL (     680 calls)
     s_psi        :     72.36s CPU      4.47s WALL (     680 calls)
     g_psi        :    150.40s CPU     10.35s WALL (     629 calls)

     Called by h_psi:
     h_psi:calbec :     97.08s CPU      4.06s WALL (     680 calls)
     vloc_psi     :   1793.76s CPU     67.59s WALL (     680 calls)
     add_vuspsi   :     21.79s CPU      2.39s WALL (     680 calls)

     General routines
     calbec       :     96.92s CPU      4.06s WALL (     680 calls)
     fft          :      0.55s CPU      0.40s WALL (      63 calls)
     ffts         :      0.00s CPU      0.00s WALL (       1 calls)
     fftw         :    854.22s CPU     28.50s WALL (   20910 calls)
     interpolate  :      0.01s CPU      0.01s WALL (       1 calls)
     davcio       :      0.26s CPU      0.04s WALL (      26 calls)

     Parallel routines

     PWSCF        :  48m34.36s CPU   3m13.64s WALL


   This run was terminated on:   4:56:23  29Jul2025            

=------------------------------------------------------------------------------=
   JOB DONE.
=------------------------------------------------------------------------------=
