
     Program PWSCF v.7.4.1 starts on 29Jul2025 at  5: 2:20 

     This program is part of the open-source Quantum ESPRESSO suite
     for quantum simulation of materials; please cite
         "P. Giannozzi et al., J. Phys.:Condens. Matter 21 395502 (2009);
         "P. Giannozzi et al., J. Phys.:Condens. Matter 29 465901 (2017);
         "P. Giannozzi et al., J. Chem. Phys. 152 154105 (2020);
          URL http://www.quantum-espresso.org", 
     in publications or presentations arising from this work. More details at
     http://www.quantum-espresso.org/quote

     Parallel version (MPI & OpenMP), running on      32 processor cores
     Number of MPI processes:                 1
     Threads/MPI process:                    32

     MPI processes distributed on     1 nodes
     3288 MiB available memory on the printing compute node when the environment starts

     Waiting for input...
     Reading input from standard input
Warning: card &IONS ignored
Warning: card / ignored
Warning: card &CELL ignored
Warning: card / ignored

     Current dimensions of program PWSCF are:
     Max number of different atomic species (ntypx) = 10
     Max number of k-points (npk) =  40000
     Max angular momentum in pseudopotentials (lmaxx) =  4
     file Bi.pbe-dn-kjpaw_psl.1.0.0.UPF: wavefunction(s)  6P 5D renormalized
     file S.pbe-n-kjpaw_psl.1.0.0.UPF: wavefunction(s)  3S 3P renormalized
     file Cl.pbe-n-kjpaw_psl.1.0.0.UPF: wavefunction(s)  3S 3P renormalized

     IMPORTANT: XC functional enforced from input :
     Exchange-correlation= VDW-DF
                           (   1   4   4   0   1   0   0)
     Any further DFT definition will be discarded
     Please, verify this is what you really want


     Atomic positions and unit cell read from directory:
     ../out/BiSCl.save/

     Message from routine setup:
     using ibrav=0 with symmetry is DISCOURAGED, use correct ibrav instead

     Subspace diagonalization in iterative solution of the eigenvalue problem:
     a serial algorithm will be used


     G-vector sticks info
     --------------------
     sticks:   dense  smooth     PW     G-vecs:    dense   smooth      PW
     Sum        3701    1855    503               310147   109643   15829

     Using Slab Decomposition



     bravais-lattice index     =            0
     lattice parameter (alat)  =       7.6083  a.u.
     unit-cell volume          =    2294.9197 (a.u.)^3
     number of atoms/cell      =           12
     number of atomic types    =            3
     number of electrons       =       112.00
     number of Kohn-Sham states=           67
     kinetic-energy cutoff     =      50.0000  Ry
     charge density cutoff     =     400.0000  Ry
     Exchange-correlation= VDW-DF
                           (   1   4   4   0   1   0   0)

     celldm(1)=   7.608340  celldm(2)=   0.000000  celldm(3)=   0.000000
     celldm(4)=   0.000000  celldm(5)=   0.000000  celldm(6)=   0.000000

     crystal axes: (cart. coord. in units of alat)
               a(1) = (   1.000000   0.000000   0.000000 )  
               a(2) = (   0.000000   1.999334   0.000000 )  
               a(3) = (   0.000000   0.000000   2.606229 )  

     reciprocal axes: (cart. coord. in units 2 pi/alat)
               b(1) = (  1.000000  0.000000  0.000000 )  
               b(2) = (  0.000000  0.500167  0.000000 )  
               b(3) = (  0.000000  0.000000  0.383696 )  


     PseudoPot. # 1 for Bi read from file:
     ./pseudo/Bi.pbe-dn-kjpaw_psl.1.0.0.UPF
     MD5 check sum: 266ded784ae3bc462508ed03f0f37963
     Pseudo is Projector augmented-wave + core cor, Zval = 15.0
     Generated using &quot;atomic&quot; code by A. Dal Corso  v.6.2.2
     Shape of augmentation charge: PSQ
     Using radial grid of 1283 points,  6 beta functions with: 
                l(1) =   0
                l(2) =   0
                l(3) =   1
                l(4) =   1
                l(5) =   2
                l(6) =   2
     Q(r) pseudized with 0 coefficients 


     PseudoPot. # 2 for S  read from file:
     ./pseudo/S.pbe-n-kjpaw_psl.1.0.0.UPF
     MD5 check sum: fb45dfebcf3e72a4e1bd4a866ec2e262
     Pseudo is Projector augmented-wave + core cor, Zval =  6.0
     Generated using &quot;atomic&quot; code by A. Dal Corso  v.6.3
     Shape of augmentation charge: PSQ
     Using radial grid of 1151 points,  6 beta functions with: 
                l(1) =   0
                l(2) =   0
                l(3) =   1
                l(4) =   1
                l(5) =   2
                l(6) =   2
     Q(r) pseudized with 0 coefficients 


     PseudoPot. # 3 for Cl read from file:
     ./pseudo/Cl.pbe-n-kjpaw_psl.1.0.0.UPF
     MD5 check sum: 530da96d25dcb7781b0586ca00827062
     Pseudo is Projector augmented-wave + core cor, Zval =  7.0
     Generated using &quot;atomic&quot; code by A. Dal Corso  v.6.3
     Shape of augmentation charge: PSQ
     Using radial grid of 1157 points,  6 beta functions with: 
                l(1) =   0
                l(2) =   0
                l(3) =   1
                l(4) =   1
                l(5) =   2
                l(6) =   2
     Q(r) pseudized with 0 coefficients 


     atomic species   valence    mass     pseudopotential
     Bi               15.00   208.98040     Bi( 1.00)
     S                 6.00    32.06000     S ( 1.00)
     Cl                7.00    35.45000     Cl( 1.00)

      8 Sym. Ops., with inversion, found ( 6 have fractional translation)



   Cartesian axes

     site n.     atom                  positions (alat units)
         1        Bi     tau(   1) = (   0.2500000   1.2416841   1.6517131  )
         2        Bi     tau(   2) = (   0.7500000   0.7576495   0.9545156  )
         3        Bi     tau(   3) = (   0.2500000   0.2420173   2.2576300  )
         4        Bi     tau(   4) = (   0.7500000   1.7573163   0.3485987  )
         5        S      tau(   5) = (   0.7500000   1.3594049   1.2026964  )
         6        S      tau(   6) = (   0.2500000   1.6395955   2.5058108  )
         7        S      tau(   7) = (   0.7500000   0.3597381   0.1004180  )
         8        S      tau(   8) = (   0.2500000   0.6399287   1.4035324  )
         9        Cl     tau(   9) = (   0.2500000   1.0558961   0.5305031  )
        10        Cl     tau(  10) = (   0.7500000   1.9431043   1.8336175  )
        11        Cl     tau(  11) = (   0.2500000   0.0562293   0.7726113  )
        12        Cl     tau(  12) = (   0.7500000   0.9434375   2.0757257  )

     number of k points=     8 (tetrahedron method)
                       cart. coord. in units 2pi/alat
        k(    1) = (   0.1250000   0.0625208   0.0479620), wk =   0.2500000
        k(    2) = (   0.1250000   0.0625208   0.1438861), wk =   0.2500000
        k(    3) = (   0.1250000   0.1875625   0.0479620), wk =   0.2500000
        k(    4) = (   0.1250000   0.1875625   0.1438861), wk =   0.2500000
        k(    5) = (   0.3750000   0.0625208   0.0479620), wk =   0.2500000
        k(    6) = (   0.3750000   0.0625208   0.1438861), wk =   0.2500000
        k(    7) = (   0.3750000   0.1875625   0.0479620), wk =   0.2500000
        k(    8) = (   0.3750000   0.1875625   0.1438861), wk =   0.2500000

     Dense  grid:   310147 G-vectors     FFT dimensions: (  50, 100, 128)

     Smooth grid:   109643 G-vectors     FFT dimensions: (  36,  72,  90)

     Estimated max dynamical RAM per process >       1.04 GB

     The potential is recalculated from file :
     ../out/BiSCl.save/charge-density



     %%%%%%%%%%%%%%%%%%%%%%%%%%%%%%%%%%%%%%%%%%%%%%%%%%%%%%%%%%%%%%%%%%%%%%%%
     %                                                                      %
     % You are using vdW-DF, which was implemented by the Thonhauser group. %
     % Please cite the following two papers that made this development      %
     % possible and the two reviews that describe the various versions:     %
     %                                                                      %
     %   T. Thonhauser et al., PRL 115, 136402 (2015).                      %
     %   T. Thonhauser et al., PRB 76, 125112 (2007).                       %
     %   K. Berland et al., Rep. Prog. Phys. 78, 066501 (2015).             %
     %   D.C. Langreth et al., J. Phys.: Condens. Matter 21, 084203 (2009). %
     %                                                                      %
     % If you are calculating stress with vdW-DF, please also cite:         %
     %                                                                      %
     %   R. Sabatini et al., J. Phys.: Condens. Matter 24, 424209 (2012).   %
     %                                                                      %
     %%%%%%%%%%%%%%%%%%%%%%%%%%%%%%%%%%%%%%%%%%%%%%%%%%%%%%%%%%%%%%%%%%%%%%%%

     %%%%%%%%%%%%%%%%%%%%%%%%%%%%%%%%%%%%%%%%%%%%%%%%%%%%%%%%%%%%%%%%%%%%%%%%
     %                                                                      %
     %  vdW-DF NEWS:                                                        %
     %                                                                      %
     %  * vdW-DF3 is now available. DOI: 10.1021/acs.jctc.0c00471           %
     %    use with input_dft = 'vdW-DF3-opt1' or 'vdW-DF3-opt2'             %
     %                                                                      %
     %  * Unscreened and range-separated hybrid vdW-DF-cx functionals       %
     %    DOI: 10.1063/1.4986522 and 10.1088/1361-648X/ac2ad2               %
     %    use with input_dft = 'vdW-DF-cx0'    and 'vdW-DF-ahcx'            %
     %  * Unscreened and range-separated hybrid vdW-DF2-b86r functionals    %
     %    DOI: 10.1063/1.4986522 and DOI: 10.1103/PhysRevX.12.041003        %
     %    use with input_dft = 'vdW-DF2-br0' and 'vdW-DF2-ahbr'             %
     %                                                                      %
     %%%%%%%%%%%%%%%%%%%%%%%%%%%%%%%%%%%%%%%%%%%%%%%%%%%%%%%%%%%%%%%%%%%%%%%%


     Starting wfcs are   68 randomized atomic wfcs
     Checking if some PAW data can be deallocated... 

     Band Structure Calculation
     Davidson diagonalization with overlap

     ethr =  8.93E-10,  avg # of iterations = 37.0

     total cpu time spent up to now is      143.7 secs

     End of band structure calculation

          k = 0.1250 0.0625 0.0480 ( 13717 PWs)   bands (ev):

   -17.5829 -17.5816 -17.5745 -17.5739 -17.5637 -17.5631 -17.5613 -17.5610
   -17.5452 -17.5436 -17.5322 -17.5318 -17.5315 -17.5308 -17.5195 -17.5190
   -17.5088 -17.5077 -17.5072 -17.5068  -9.2991  -9.0816  -8.9812  -8.8915
    -7.9813  -7.7590  -6.4146  -6.3153  -4.9047  -4.8400  -3.3065  -2.9738
     1.3535   1.4138   1.8223   1.9305   2.0799   2.2606   2.4551   2.6420
     2.8380   2.8635   2.9049   3.0003   3.2944   3.3750   3.5926   3.7394
     3.8664   4.0396   4.1375   4.2223   4.2665   4.3336   4.5131   4.7677
     7.2913   7.4931   7.8016   8.0819   8.1298   8.3238   8.4378   8.8734
     9.0829   9.4433   9.5098

          k = 0.1250 0.0625 0.1439 ( 13715 PWs)   bands (ev):

   -17.5826 -17.5821 -17.5743 -17.5740 -17.5635 -17.5633 -17.5612 -17.5611
   -17.5448 -17.5441 -17.5318 -17.5317 -17.5315 -17.5312 -17.5193 -17.5191
   -17.5085 -17.5081 -17.5070 -17.5069  -9.2499  -9.1666  -8.9392  -8.9083
    -7.9115  -7.8201  -6.3827  -6.3417  -4.8942  -4.8680  -3.2030  -3.0656
     1.3212   1.3498   1.8561   1.9144   2.2279   2.3718   2.4177   2.5656
     2.8179   2.8677   2.9070   2.9337   3.3137   3.3960   3.6576   3.7305
     3.9073   3.9634   4.1676   4.1875   4.2652   4.2913   4.5760   4.6800
     7.3672   7.4543   7.6847   7.8102   8.3814   8.5263   8.5597   8.7750
     9.1481   9.3513   9.4812

          k = 0.1250 0.1876 0.0480 ( 13716 PWs)   bands (ev):

   -17.5826 -17.5820 -17.5743 -17.5741 -17.5635 -17.5632 -17.5612 -17.5611
   -17.5448 -17.5441 -17.5320 -17.5316 -17.5316 -17.5311 -17.5193 -17.5191
   -17.5084 -17.5079 -17.5071 -17.5069  -9.2186  -9.1002  -9.0115  -8.9447
    -7.9185  -7.8269  -6.3667  -6.3264  -4.8959  -4.8676  -3.1934  -3.0560
     1.3537   1.3966   1.8296   1.8738   2.1550   2.2257   2.3784   2.5460
     2.7565   2.8334   2.9663   3.0177   3.3077   3.5502   3.6106   3.6826
     3.8947   3.9409   4.1187   4.2156   4.3975   4.4073   4.6079   4.6951
     7.3030   7.3938   7.7382   7.9155   8.2722   8.4145   8.5737   8.7524
     9.1355   9.3250   9.4375

          k = 0.1250 0.1876 0.1439 ( 13722 PWs)   bands (ev):

   -17.5824 -17.5822 -17.5742 -17.5741 -17.5634 -17.5633 -17.5612 -17.5611
   -17.5446 -17.5443 -17.5317 -17.5316 -17.5316 -17.5314 -17.5192 -17.5191
   -17.5083 -17.5081 -17.5070 -17.5070  -9.1851  -9.1354  -8.9951  -8.9666
    -7.8872  -7.8494  -6.3546  -6.3379  -4.8885  -4.8768  -3.1570  -3.1001
     1.3688   1.4027   1.7820   1.8267   2.2436   2.3183   2.5010   2.5527
     2.7698   2.7948   2.9340   2.9509   3.3090   3.4238   3.5081   3.5596
     3.9400   3.9751   4.2536   4.2867   4.3989   4.4123   4.5888   4.6223
     7.3549   7.3896   7.8434   8.0451   8.1152   8.3280   8.5731   8.6694
     9.2266   9.3178   9.4934

          k = 0.3750 0.0625 0.0480 ( 13679 PWs)   bands (ev):

   -17.5812 -17.5808 -17.5805 -17.5795 -17.5560 -17.5557 -17.5555 -17.5551
   -17.5433 -17.5419 -17.5357 -17.5355 -17.5323 -17.5318 -17.5257 -17.5252
   -17.5036 -17.5028 -17.5024 -17.5017  -8.9169  -8.8460  -8.7570  -8.7359
    -7.3398  -7.3115  -6.4384  -6.3760  -5.0164  -4.9737  -4.0132  -3.9304
     0.8916   0.9495   1.1227   1.1597   1.5882   1.7739   2.0691   2.2782
     2.4851   2.7288   2.8546   3.0265   3.1695   3.3068   3.4639   3.6395
     3.6678   3.7486   3.8743   3.9488   4.1280   4.1484   4.2887   4.4274
     7.6481   8.0108   8.2658   8.6177   8.6658   8.7462   8.8650   9.0476
     9.3975   9.5080   9.7735

          k = 0.3750 0.0625 0.1439 ( 13683 PWs)   bands (ev):

   -17.5812 -17.5811 -17.5801 -17.5798 -17.5559 -17.5558 -17.5554 -17.5552
   -17.5429 -17.5424 -17.5357 -17.5355 -17.5321 -17.5319 -17.5255 -17.5253
   -17.5035 -17.5032 -17.5020 -17.5018  -8.8976  -8.8685  -8.7495  -8.7411
    -7.3327  -7.3209  -6.4164  -6.3905  -5.0087  -4.9909  -3.9869  -3.9528
     0.9157   0.9304   1.2164   1.2254   1.6258   1.6574   1.9983   2.0588
     2.5183   2.6145   2.9315   3.0024   3.3437   3.3736   3.4554   3.6079
     3.7171   3.7936   3.8896   3.9575   4.1045   4.1589   4.2892   4.4242
     7.7130   7.8724   8.2657   8.4103   8.6785   8.7804   8.8980   8.9504
     9.4460   9.6017   9.8636

          k = 0.3750 0.1876 0.0480 ( 13709 PWs)   bands (ev):

   -17.5811 -17.5809 -17.5803 -17.5799 -17.5559 -17.5557 -17.5555 -17.5553
   -17.5429 -17.5424 -17.5357 -17.5356 -17.5321 -17.5319 -17.5256 -17.5254
   -17.5034 -17.5030 -17.5023 -17.5020  -8.8715  -8.8174  -8.8020  -8.7683
    -7.3337  -7.3218  -6.4159  -6.3897  -5.0070  -4.9889  -3.9919  -3.9575
     0.9160   1.0047   1.1146   1.1980   1.7323   1.8615   1.9747   2.0454
     2.5410   2.6623   2.8103   3.0718   3.1626   3.4729   3.5320   3.5557
     3.7209   3.7563   3.8591   3.9391   4.0552   4.1459   4.2255   4.2999
     7.6247   7.8721   8.4590   8.5036   8.6125   8.7732   8.8092   8.9266
     9.5213   9.5498   9.8843

          k = 0.3750 0.1876 0.1439 ( 13679 PWs)   bands (ev):

   -17.5810 -17.5809 -17.5801 -17.5800 -17.5558 -17.5557 -17.5555 -17.5554
   -17.5428 -17.5425 -17.5356 -17.5356 -17.5321 -17.5320 -17.5255 -17.5254
   -17.5032 -17.5031 -17.5021 -17.5020  -8.8576  -8.8366  -8.7891  -8.7765
    -7.3306  -7.3256  -6.4078  -6.3969  -5.0000  -4.9921  -3.9840  -3.9696
     0.9280   0.9594   1.1368   1.1774   1.7605   1.8044   2.0134   2.0508
     2.6031   2.7193   2.9097   3.0688   3.2511   3.3040   3.3996   3.4809
     3.6940   3.7394   3.8622   3.9355   4.0548   4.1057   4.3086   4.3546
     7.8365   7.9891   8.3440   8.4532   8.7115   8.7482   8.8132   8.8778
     9.4610   9.5328   9.8300

     the Fermi energy is     6.8717 ev
     (compare with:     6.8717 eV, computed in scf)

     Writing all to output data dir ../out/BiSCl.save/ :
     XML data file, pseudopotentials, collected wavefunctions

     init_run     :     71.72s CPU     57.03s WALL (       1 calls)
     electrons    :   1954.80s CPU     86.55s WALL (       1 calls)

     Called by init_run:
     wfcinit      :      0.00s CPU      0.00s WALL (       1 calls)
     potinit      :     66.56s CPU     54.67s WALL (       1 calls)
     hinit0       :      1.21s CPU      0.53s WALL (       1 calls)

     Called by electrons:
     c_bands      :   1954.65s CPU     86.54s WALL (       1 calls)
     v_of_rho     :     54.26s CPU     53.93s WALL (       1 calls)
     newd         :      3.46s CPU      1.74s WALL (       1 calls)
     PAW_pot      :     12.12s CPU      0.73s WALL (       1 calls)
     vdW_kernel   :     52.70s CPU     52.71s WALL (       1 calls)

     Called by c_bands:
     init_us_2    :      2.60s CPU      0.23s WALL (       8 calls)
     cegterg      :   1885.35s CPU     83.60s WALL (      18 calls)

     Called by *egterg:
     cdiaghg      :      9.58s CPU      1.89s WALL (     304 calls)
     h_psi        :   1558.90s CPU     58.61s WALL (     322 calls)
     s_psi        :     40.68s CPU      2.40s WALL (     322 calls)
     g_psi        :     68.99s CPU      4.61s WALL (     296 calls)

     Called by h_psi:
     h_psi:calbec :     50.23s CPU      2.33s WALL (     322 calls)
     vloc_psi     :   1414.50s CPU     49.68s WALL (     322 calls)
     add_vuspsi   :     13.80s CPU      1.45s WALL (     322 calls)

     General routines
     calbec       :     50.22s CPU      2.32s WALL (     322 calls)
     fft          :      0.53s CPU      0.40s WALL (      63 calls)
     ffts         :      0.00s CPU      0.00s WALL (       1 calls)
     fftw         :    854.26s CPU     27.65s WALL (   21024 calls)
     interpolate  :      0.01s CPU      0.01s WALL (       1 calls)
     davcio       :      0.35s CPU      0.04s WALL (      16 calls)

     Parallel routines

     PWSCF        :  33m48.81s CPU   2m23.88s WALL


   This run was terminated on:   5: 4:44  29Jul2025            

=------------------------------------------------------------------------------=
   JOB DONE.
=------------------------------------------------------------------------------=
