
     Program BANDS v.7.4.1 starts on 29Jul2025 at  5:27:58 

     This program is part of the open-source Quantum ESPRESSO suite
     for quantum simulation of materials; please cite
         "P. Giannozzi et al., J. Phys.:Condens. Matter 21 395502 (2009);
         "P. Giannozzi et al., J. Phys.:Condens. Matter 29 465901 (2017);
         "P. Giannozzi et al., J. Chem. Phys. 152 154105 (2020);
          URL http://www.quantum-espresso.org", 
     in publications or presentations arising from this work. More details at
     http://www.quantum-espresso.org/quote

     Parallel version (MPI & OpenMP), running on      32 processor cores
     Number of MPI processes:                 1
     Threads/MPI process:                    32

     MPI processes distributed on     1 nodes
     2626 MiB available memory on the printing compute node when the environment starts


     Reading xml data from directory:

     ../out/BiSI.save/
     file Bi.pbe-dn-kjpaw_psl.1.0.0.UPF: wavefunction(s)  6P 5D renormalized
     file S.pbe-n-kjpaw_psl.1.0.0.UPF: wavefunction(s)  3S 3P renormalized
     file I.pbe-n-kjpaw_psl.1.0.0.UPF: wavefunction(s)  5S renormalized

     IMPORTANT: XC functional enforced from input :
     Exchange-correlation= VDW-DF
                           (   1   4   4   0   1   0   0)
     Any further DFT definition will be discarded
     Please, verify this is what you really want


     G-vector sticks info
     --------------------
     sticks:   dense  smooth     PW     G-vecs:    dense   smooth      PW
     Sum        4257    2109    585               377537   133263   19245

     Using Slab Decomposition



     %%%%%%%%%%%%%%%%%%%%%%%%%%%%%%%%%%%%%%%%%%%%%%%%%%%%%%%%%%%%%%%%%%%%%%%%
     %                                                                      %
     % You are using vdW-DF, which was implemented by the Thonhauser group. %
     % Please cite the following two papers that made this development      %
     % possible and the two reviews that describe the various versions:     %
     %                                                                      %
     %   T. Thonhauser et al., PRL 115, 136402 (2015).                      %
     %   T. Thonhauser et al., PRB 76, 125112 (2007).                       %
     %   K. Berland et al., Rep. Prog. Phys. 78, 066501 (2015).             %
     %   D.C. Langreth et al., J. Phys.: Condens. Matter 21, 084203 (2009). %
     %                                                                      %
     % If you are calculating stress with vdW-DF, please also cite:         %
     %                                                                      %
     %   R. Sabatini et al., J. Phys.: Condens. Matter 24, 424209 (2012).   %
     %                                                                      %
     %%%%%%%%%%%%%%%%%%%%%%%%%%%%%%%%%%%%%%%%%%%%%%%%%%%%%%%%%%%%%%%%%%%%%%%%

     %%%%%%%%%%%%%%%%%%%%%%%%%%%%%%%%%%%%%%%%%%%%%%%%%%%%%%%%%%%%%%%%%%%%%%%%
     %                                                                      %
     %  vdW-DF NEWS:                                                        %
     %                                                                      %
     %  * vdW-DF3 is now available. DOI: 10.1021/acs.jctc.0c00471           %
     %    use with input_dft = 'vdW-DF3-opt1' or 'vdW-DF3-opt2'             %
     %                                                                      %
     %  * Unscreened and range-separated hybrid vdW-DF-cx functionals       %
     %    DOI: 10.1063/1.4986522 and 10.1088/1361-648X/ac2ad2               %
     %    use with input_dft = 'vdW-DF-cx0'    and 'vdW-DF-ahcx'            %
     %  * Unscreened and range-separated hybrid vdW-DF2-b86r functionals    %
     %    DOI: 10.1063/1.4986522 and DOI: 10.1103/PhysRevX.12.041003        %
     %    use with input_dft = 'vdW-DF2-br0' and 'vdW-DF2-ahbr'             %
     %                                                                      %
     %%%%%%%%%%%%%%%%%%%%%%%%%%%%%%%%%%%%%%%%%%%%%%%%%%%%%%%%%%%%%%%%%%%%%%%%


     Reading collected, re-writing distributed wavefunctions
     high-symmetry point:  0.1250 0.0592 0.0475   x coordinate   0.0000
     high-symmetry point:  0.1250 0.0592 0.1425   x coordinate   0.0950
     high-symmetry point:  0.1250 0.1776 0.0475   x coordinate   0.2468
     high-symmetry point:  0.1250 0.1776 0.1425   x coordinate   0.3418
     high-symmetry point:  0.3750 0.0592 0.0475   x coordinate   0.6343
     high-symmetry point:  0.3750 0.0592 0.1425   x coordinate   0.7293
     high-symmetry point:  0.3750 0.1776 0.0475   x coordinate   0.8811
     high-symmetry point:  0.3750 0.1776 0.1425   x coordinate   0.9762

     Plottable bands (eV) written to file BiSI.band.gnu
     Bands written to file BiSI.band

 **************************************************************************

                    xk=(   0.12500,   0.05919,   0.04751  )

     point group C_1 (1)    
     there are  1 classes
     the character table:

       E    
A      1.00

     the symmetry operations in each class and the name of the first element:

     E        1
                                                                 

     Band symmetry, C_1 (1)     point group:

     e(  1 -  1) =    -17.94748  eV     1   --> A              
     e(  2 -  2) =    -17.94722  eV     1   --> A              
     e(  3 -  4) =    -17.94125  eV     2   -->   2 A              
     e(  5 -  6) =    -17.93931  eV     2   -->   2 A              
     e(  7 -  8) =    -17.93831  eV     2   -->   2 A              
     e(  9 -  9) =    -17.92515  eV     1   --> A              
     e( 10 - 10) =    -17.92476  eV     1   --> A              
     e( 11 - 11) =    -17.90956  eV     1   --> A              
     e( 12 - 12) =    -17.90930  eV     1   --> A              
     e( 13 - 13) =    -17.90842  eV     1   --> A              
     e( 14 - 14) =    -17.90832  eV     1   --> A              
     e( 15 - 15) =    -17.90215  eV     1   --> A              
     e( 16 - 16) =    -17.90195  eV     1   --> A              
     e( 17 - 17) =    -17.89135  eV     1   --> A              
     e( 18 - 18) =    -17.89110  eV     1   --> A              
     e( 19 - 20) =    -17.88593  eV     2   -->   2 A              
     e( 21 - 21) =     -8.63248  eV     1   --> A              
     e( 22 - 22) =     -8.52090  eV     1   --> A              
     e( 23 - 23) =     -7.10000  eV     1   --> A              
     e( 24 - 24) =     -6.86544  eV     1   --> A              
     e( 25 - 25) =     -6.76240  eV     1   --> A              
     e( 26 - 26) =     -6.67069  eV     1   --> A              
     e( 27 - 27) =     -6.61995  eV     1   --> A              
     e( 28 - 28) =     -6.54905  eV     1   --> A              
     e( 29 - 29) =     -5.22311  eV     1   --> A              
     e( 30 - 30) =     -5.01688  eV     1   --> A              
     e( 31 - 31) =     -3.60442  eV     1   --> A              
     e( 32 - 32) =     -3.46631  eV     1   --> A              
     e( 33 - 33) =      1.16895  eV     1   --> A              
     e( 34 - 34) =      1.22978  eV     1   --> A              
     e( 35 - 35) =      1.56937  eV     1   --> A              
     e( 36 - 36) =      1.60311  eV     1   --> A              
     e( 37 - 37) =      2.17991  eV     1   --> A              
     e( 38 - 38) =      2.34167  eV     1   --> A              
     e( 39 - 39) =      2.51444  eV     1   --> A              
     e( 40 - 40) =      2.73549  eV     1   --> A              
     e( 41 - 41) =      2.83714  eV     1   --> A              
     e( 42 - 42) =      2.91756  eV     1   --> A              
     e( 43 - 43) =      3.29352  eV     1   --> A              
     e( 44 - 44) =      3.47462  eV     1   --> A              
     e( 45 - 45) =      3.59578  eV     1   --> A              
     e( 46 - 46) =      3.61734  eV     1   --> A              
     e( 47 - 47) =      3.65919  eV     1   --> A              
     e( 48 - 48) =      3.83602  eV     1   --> A              
     e( 49 - 49) =      3.90713  eV     1   --> A              
     e( 50 - 50) =      3.96731  eV     1   --> A              
     e( 51 - 51) =      4.03588  eV     1   --> A              
     e( 52 - 52) =      4.16208  eV     1   --> A              
     e( 53 - 53) =      4.30917  eV     1   --> A              
     e( 54 - 54) =      4.36459  eV     1   --> A              
     e( 55 - 55) =      4.43267  eV     1   --> A              
     e( 56 - 56) =      4.52209  eV     1   --> A              
     e( 57 - 57) =      6.95271  eV     1   --> A              
     e( 58 - 58) =      6.96939  eV     1   --> A              
     e( 59 - 59) =      7.22735  eV     1   --> A              
     e( 60 - 60) =      7.38510  eV     1   --> A              
     e( 61 - 61) =      7.46741  eV     1   --> A              
     e( 62 - 62) =      7.67182  eV     1   --> A              
     e( 63 - 63) =      7.79791  eV     1   --> A              
     e( 64 - 64) =      7.89879  eV     1   --> A              
     e( 65 - 65) =      8.56563  eV     1   --> A              
     e( 66 - 66) =      8.65835  eV     1   --> A              
     e( 67 - 67) =      8.75165  eV     1   --> A              

 **************************************************************************

 **************************************************************************

                    xk=(   0.12500,   0.05919,   0.14253  )

     Band symmetry, C_1 (1)     point group:

     e(  1 -  1) =    -17.94741  eV     1   --> A              
     e(  2 -  2) =    -17.94729  eV     1   --> A              
     e(  3 -  4) =    -17.94123  eV     2   -->   2 A              
     e(  5 -  6) =    -17.93930  eV     2   -->   2 A              
     e(  7 -  8) =    -17.93831  eV     2   -->   2 A              
     e(  9 -  9) =    -17.92504  eV     1   --> A              
     e( 10 - 10) =    -17.92487  eV     1   --> A              
     e( 11 - 11) =    -17.90948  eV     1   --> A              
     e( 12 - 12) =    -17.90937  eV     1   --> A              
     e( 13 - 14) =    -17.90839  eV     2   -->   2 A              
     e( 15 - 16) =    -17.90207  eV     2   -->   2 A              
     e( 17 - 17) =    -17.89128  eV     1   --> A              
     e( 18 - 18) =    -17.89117  eV     1   --> A              
     e( 19 - 20) =    -17.88592  eV     2   -->   2 A              
     e( 21 - 21) =     -8.60138  eV     1   --> A              
     e( 22 - 22) =     -8.55522  eV     1   --> A              
     e( 23 - 23) =     -7.05876  eV     1   --> A              
     e( 24 - 24) =     -6.97072  eV     1   --> A              
     e( 25 - 25) =     -6.72189  eV     1   --> A              
     e( 26 - 26) =     -6.67144  eV     1   --> A              
     e( 27 - 27) =     -6.58459  eV     1   --> A              
     e( 28 - 28) =     -6.54158  eV     1   --> A              
     e( 29 - 29) =     -5.17936  eV     1   --> A              
     e( 30 - 30) =     -5.09319  eV     1   --> A              
     e( 31 - 31) =     -3.55442  eV     1   --> A              
     e( 32 - 32) =     -3.49774  eV     1   --> A              
     e( 33 - 33) =      1.15516  eV     1   --> A              
     e( 34 - 34) =      1.17889  eV     1   --> A              
     e( 35 - 35) =      1.57865  eV     1   --> A              
     e( 36 - 36) =      1.60878  eV     1   --> A              
     e( 37 - 37) =      2.23679  eV     1   --> A              
     e( 38 - 38) =      2.31667  eV     1   --> A              
     e( 39 - 39) =      2.54485  eV     1   --> A              
     e( 40 - 40) =      2.69343  eV     1   --> A              
     e( 41 - 41) =      2.97104  eV     1   --> A              
     e( 42 - 42) =      3.04672  eV     1   --> A              
     e( 43 - 43) =      3.26013  eV     1   --> A              
     e( 44 - 44) =      3.40769  eV     1   --> A              
     e( 45 - 45) =      3.59717  eV     1   --> A              
     e( 46 - 46) =      3.64119  eV     1   --> A              
     e( 47 - 47) =      3.66534  eV     1   --> A              
     e( 48 - 48) =      3.73294  eV     1   --> A              
     e( 49 - 49) =      3.87152  eV     1   --> A              
     e( 50 - 50) =      3.90528  eV     1   --> A              
     e( 51 - 51) =      4.04727  eV     1   --> A              
     e( 52 - 52) =      4.12347  eV     1   --> A              
     e( 53 - 53) =      4.29098  eV     1   --> A              
     e( 54 - 54) =      4.35666  eV     1   --> A              
     e( 55 - 55) =      4.45932  eV     1   --> A              
     e( 56 - 56) =      4.54435  eV     1   --> A              
     e( 57 - 57) =      6.90641  eV     1   --> A              
     e( 58 - 58) =      6.95884  eV     1   --> A              
     e( 59 - 59) =      7.15868  eV     1   --> A              
     e( 60 - 60) =      7.23098  eV     1   --> A              
     e( 61 - 61) =      7.64726  eV     1   --> A              
     e( 62 - 62) =      7.78654  eV     1   --> A              
     e( 63 - 63) =      7.88625  eV     1   --> A              
     e( 64 - 64) =      7.99009  eV     1   --> A              
     e( 65 - 65) =      8.48953  eV     1   --> A              
     e( 66 - 66) =      8.59438  eV     1   --> A              
     e( 67 - 67) =      8.83023  eV     1   --> A              

 **************************************************************************

 **************************************************************************

                    xk=(   0.12500,   0.17757,   0.04751  )

     Band symmetry, C_1 (1)     point group:

     e(  1 -  1) =    -17.94744  eV     1   --> A              
     e(  2 -  2) =    -17.94734  eV     1   --> A              
     e(  3 -  4) =    -17.94123  eV     2   -->   2 A              
     e(  5 -  6) =    -17.93932  eV     2   -->   2 A              
     e(  7 -  8) =    -17.93831  eV     2   -->   2 A              
     e(  9 -  9) =    -17.92507  eV     1   --> A              
     e( 10 - 10) =    -17.92493  eV     1   --> A              
     e( 11 - 11) =    -17.90950  eV     1   --> A              
     e( 12 - 12) =    -17.90939  eV     1   --> A              
     e( 13 - 14) =    -17.90842  eV     2   -->   2 A              
     e( 15 - 16) =    -17.90211  eV     2   -->   2 A              
     e( 17 - 18) =    -17.89132  eV     2   -->   2 A              
     e( 19 - 20) =    -17.88594  eV     2   -->   2 A              
     e( 21 - 21) =     -8.59680  eV     1   --> A              
     e( 22 - 22) =     -8.55017  eV     1   --> A              
     e( 23 - 23) =     -7.05590  eV     1   --> A              
     e( 24 - 24) =     -6.96885  eV     1   --> A              
     e( 25 - 25) =     -6.80170  eV     1   --> A              
     e( 26 - 26) =     -6.75885  eV     1   --> A              
     e( 27 - 27) =     -6.50596  eV     1   --> A              
     e( 28 - 28) =     -6.48364  eV     1   --> A              
     e( 29 - 29) =     -5.16162  eV     1   --> A              
     e( 30 - 30) =     -5.07541  eV     1   --> A              
     e( 31 - 31) =     -3.55382  eV     1   --> A              
     e( 32 - 32) =     -3.49695  eV     1   --> A              
     e( 33 - 33) =      1.14290  eV     1   --> A              
     e( 34 - 34) =      1.17752  eV     1   --> A              
     e( 35 - 35) =      1.55816  eV     1   --> A              
     e( 36 - 36) =      1.58444  eV     1   --> A              
     e( 37 - 37) =      2.13772  eV     1   --> A              
     e( 38 - 38) =      2.23051  eV     1   --> A              
     e( 39 - 39) =      2.61131  eV     1   --> A              
     e( 40 - 40) =      2.72873  eV     1   --> A              
     e( 41 - 41) =      2.90606  eV     1   --> A              
     e( 42 - 42) =      3.00856  eV     1   --> A              
     e( 43 - 43) =      3.20919  eV     1   --> A              
     e( 44 - 44) =      3.42530  eV     1   --> A              
     e( 45 - 45) =      3.54875  eV     1   --> A              
     e( 46 - 46) =      3.62019  eV     1   --> A              
     e( 47 - 47) =      3.68600  eV     1   --> A              
     e( 48 - 48) =      3.81397  eV     1   --> A              
     e( 49 - 49) =      3.92044  eV     1   --> A              
     e( 50 - 50) =      3.98100  eV     1   --> A              
     e( 51 - 51) =      4.05474  eV     1   --> A              
     e( 52 - 52) =      4.16533  eV     1   --> A              
     e( 53 - 53) =      4.34349  eV     1   --> A              
     e( 54 - 54) =      4.38892  eV     1   --> A              
     e( 55 - 55) =      4.55589  eV     1   --> A              
     e( 56 - 56) =      4.56649  eV     1   --> A              
     e( 57 - 57) =      6.86971  eV     1   --> A              
     e( 58 - 58) =      6.89751  eV     1   --> A              
     e( 59 - 59) =      7.25835  eV     1   --> A              
     e( 60 - 60) =      7.34899  eV     1   --> A              
     e( 61 - 61) =      7.65840  eV     1   --> A              
     e( 62 - 62) =      7.70235  eV     1   --> A              
     e( 63 - 63) =      7.81010  eV     1   --> A              
     e( 64 - 64) =      7.90754  eV     1   --> A              
     e( 65 - 65) =      8.49544  eV     1   --> A              
     e( 66 - 66) =      8.64434  eV     1   --> A              
     e( 67 - 67) =      8.65065  eV     1   --> A              

 **************************************************************************

 **************************************************************************

                    xk=(   0.12500,   0.17757,   0.14253  )

     Band symmetry, C_1 (1)     point group:

     e(  1 -  2) =    -17.94741  eV     2   -->   2 A              
     e(  3 -  4) =    -17.94122  eV     2   -->   2 A              
     e(  5 -  6) =    -17.93928  eV     2   -->   2 A              
     e(  7 -  8) =    -17.93831  eV     2   -->   2 A              
     e(  9 - 10) =    -17.92501  eV     2   -->   2 A              
     e( 11 - 12) =    -17.90947  eV     2   -->   2 A              
     e( 13 - 14) =    -17.90840  eV     2   -->   2 A              
     e( 15 - 16) =    -17.90208  eV     2   -->   2 A              
     e( 17 - 18) =    -17.89125  eV     2   -->   2 A              
     e( 19 - 20) =    -17.88591  eV     2   -->   2 A              
     e( 21 - 21) =     -8.58211  eV     1   --> A              
     e( 22 - 22) =     -8.56272  eV     1   --> A              
     e( 23 - 23) =     -7.08793  eV     1   --> A              
     e( 24 - 24) =     -7.05743  eV     1   --> A              
     e( 25 - 25) =     -6.68417  eV     1   --> A              
     e( 26 - 26) =     -6.63190  eV     1   --> A              
     e( 27 - 27) =     -6.56981  eV     1   --> A              
     e( 28 - 28) =     -6.52997  eV     1   --> A              
     e( 29 - 29) =     -5.14999  eV     1   --> A              
     e( 30 - 30) =     -5.11390  eV     1   --> A              
     e( 31 - 31) =     -3.53220  eV     1   --> A              
     e( 32 - 32) =     -3.50876  eV     1   --> A              
     e( 33 - 33) =      1.15728  eV     1   --> A              
     e( 34 - 34) =      1.17887  eV     1   --> A              
     e( 35 - 35) =      1.51164  eV     1   --> A              
     e( 36 - 36) =      1.53489  eV     1   --> A              
     e( 37 - 37) =      2.25757  eV     1   --> A              
     e( 38 - 38) =      2.31987  eV     1   --> A              
     e( 39 - 39) =      2.67571  eV     1   --> A              
     e( 40 - 40) =      2.75324  eV     1   --> A              
     e( 41 - 41) =      2.88856  eV     1   --> A              
     e( 42 - 42) =      2.94157  eV     1   --> A              
     e( 43 - 43) =      3.08778  eV     1   --> A              
     e( 44 - 44) =      3.28333  eV     1   --> A              
     e( 45 - 45) =      3.59728  eV     1   --> A              
     e( 46 - 46) =      3.64980  eV     1   --> A              
     e( 47 - 47) =      3.75619  eV     1   --> A              
     e( 48 - 48) =      3.77145  eV     1   --> A              
     e( 49 - 49) =      3.91585  eV     1   --> A              
     e( 50 - 50) =      4.03019  eV     1   --> A              
     e( 51 - 51) =      4.06218  eV     1   --> A              
     e( 52 - 52) =      4.18281  eV     1   --> A              
     e( 53 - 53) =      4.35062  eV     1   --> A              
     e( 54 - 54) =      4.41509  eV     1   --> A              
     e( 55 - 55) =      4.46970  eV     1   --> A              
     e( 56 - 56) =      4.50777  eV     1   --> A              
     e( 57 - 57) =      6.90216  eV     1   --> A              
     e( 58 - 58) =      6.93900  eV     1   --> A              
     e( 59 - 59) =      7.32255  eV     1   --> A              
     e( 60 - 60) =      7.47264  eV     1   --> A              
     e( 61 - 61) =      7.54580  eV     1   --> A              
     e( 62 - 62) =      7.64644  eV     1   --> A              
     e( 63 - 63) =      7.78330  eV     1   --> A              
     e( 64 - 64) =      7.85566  eV     1   --> A              
     e( 65 - 65) =      8.53565  eV     1   --> A              
     e( 66 - 66) =      8.61761  eV     1   --> A              
     e( 67 - 67) =      8.77528  eV     1   --> A              

 **************************************************************************

 **************************************************************************

                    xk=(   0.37500,   0.05919,   0.04751  )

     Band symmetry, C_1 (1)     point group:

     e(  1 -  2) =    -17.95359  eV     2   -->   2 A              
     e(  3 -  3) =    -17.95154  eV     1   --> A              
     e(  4 -  4) =    -17.95133  eV     1   --> A              
     e(  5 -  8) =    -17.92896  eV     4   -->   4 A              
     e(  9 -  9) =    -17.91762  eV     1   --> A              
     e( 10 - 10) =    -17.91737  eV     1   --> A              
     e( 11 - 11) =    -17.91120  eV     1   --> A              
     e( 12 - 12) =    -17.91099  eV     1   --> A              
     e( 13 - 14) =    -17.91086  eV     2   -->   2 A              
     e( 15 - 15) =    -17.90664  eV     1   --> A              
     e( 16 - 16) =    -17.90650  eV     1   --> A              
     e( 17 - 17) =    -17.88688  eV     1   --> A              
     e( 18 - 18) =    -17.88668  eV     1   --> A              
     e( 19 - 19) =    -17.88590  eV     1   --> A              
     e( 20 - 20) =    -17.88565  eV     1   --> A              
     e( 21 - 21) =     -7.89298  eV     1   --> A              
     e( 22 - 22) =     -7.80286  eV     1   --> A              
     e( 23 - 23) =     -6.86716  eV     1   --> A              
     e( 24 - 24) =     -6.86097  eV     1   --> A              
     e( 25 - 25) =     -6.64329  eV     1   --> A              
     e( 26 - 26) =     -6.50215  eV     1   --> A              
     e( 27 - 27) =     -6.46591  eV     1   --> A              
     e( 28 - 28) =     -6.43783  eV     1   --> A              
     e( 29 - 29) =     -5.36456  eV     1   --> A              
     e( 30 - 30) =     -5.27748  eV     1   --> A              
     e( 31 - 31) =     -4.41246  eV     1   --> A              
     e( 32 - 32) =     -4.38893  eV     1   --> A              
     e( 33 - 33) =      0.79556  eV     1   --> A              
     e( 34 - 34) =      0.91565  eV     1   --> A              
     e( 35 - 35) =      1.08511  eV     1   --> A              
     e( 36 - 36) =      1.17066  eV     1   --> A              
     e( 37 - 37) =      1.66664  eV     1   --> A              
     e( 38 - 38) =      1.82046  eV     1   --> A              
     e( 39 - 39) =      2.19180  eV     1   --> A              
     e( 40 - 40) =      2.22094  eV     1   --> A              
     e( 41 - 41) =      2.30628  eV     1   --> A              
     e( 42 - 42) =      2.48805  eV     1   --> A              
     e( 43 - 43) =      2.80173  eV     1   --> A              
     e( 44 - 44) =      3.01257  eV     1   --> A              
     e( 45 - 45) =      3.27920  eV     1   --> A              
     e( 46 - 46) =      3.34802  eV     1   --> A              
     e( 47 - 47) =      3.55866  eV     1   --> A              
     e( 48 - 48) =      3.67276  eV     1   --> A              
     e( 49 - 49) =      3.74844  eV     1   --> A              
     e( 50 - 50) =      3.85039  eV     1   --> A              
     e( 51 - 51) =      3.95818  eV     1   --> A              
     e( 52 - 52) =      4.03018  eV     1   --> A              
     e( 53 - 53) =      4.13457  eV     1   --> A              
     e( 54 - 54) =      4.19299  eV     1   --> A              
     e( 55 - 55) =      4.25619  eV     1   --> A              
     e( 56 - 56) =      4.32015  eV     1   --> A              
     e( 57 - 57) =      6.95547  eV     1   --> A              
     e( 58 - 58) =      7.50766  eV     1   --> A              
     e( 59 - 59) =      7.66558  eV     1   --> A              
     e( 60 - 60) =      7.92574  eV     1   --> A              
     e( 61 - 61) =      7.98820  eV     1   --> A              
     e( 62 - 62) =      8.04473  eV     1   --> A              
     e( 63 - 63) =      8.15450  eV     1   --> A              
     e( 64 - 64) =      8.33366  eV     1   --> A              
     e( 65 - 65) =      8.74820  eV     1   --> A              
     e( 66 - 66) =      8.89676  eV     1   --> A              
     e( 67 - 67) =      9.01700  eV     1   --> A              

 **************************************************************************

 **************************************************************************

                    xk=(   0.37500,   0.05919,   0.14253  )

     Band symmetry, C_1 (1)     point group:

     e(  1 -  2) =    -17.95360  eV     2   -->   2 A              
     e(  3 -  4) =    -17.95146  eV     2   -->   2 A              
     e(  5 -  8) =    -17.92894  eV     4   -->   4 A              
     e(  9 -  9) =    -17.91754  eV     1   --> A              
     e( 10 - 10) =    -17.91743  eV     1   --> A              
     e( 11 - 12) =    -17.91112  eV     2   -->   2 A              
     e( 13 - 14) =    -17.91087  eV     2   -->   2 A              
     e( 15 - 16) =    -17.90659  eV     2   -->   2 A              
     e( 17 - 17) =    -17.88684  eV     1   --> A              
     e( 18 - 18) =    -17.88674  eV     1   --> A              
     e( 19 - 19) =    -17.88581  eV     1   --> A              
     e( 20 - 20) =    -17.88571  eV     1   --> A              
     e( 21 - 21) =     -7.86777  eV     1   --> A              
     e( 22 - 22) =     -7.83049  eV     1   --> A              
     e( 23 - 23) =     -6.86702  eV     1   --> A              
     e( 24 - 24) =     -6.86472  eV     1   --> A              
     e( 25 - 25) =     -6.61052  eV     1   --> A              
     e( 26 - 26) =     -6.55533  eV     1   --> A              
     e( 27 - 27) =     -6.44829  eV     1   --> A              
     e( 28 - 28) =     -6.42802  eV     1   --> A              
     e( 29 - 29) =     -5.33990  eV     1   --> A              
     e( 30 - 30) =     -5.30380  eV     1   --> A              
     e( 31 - 31) =     -4.40531  eV     1   --> A              
     e( 32 - 32) =     -4.39559  eV     1   --> A              
     e( 33 - 33) =      0.82980  eV     1   --> A              
     e( 34 - 34) =      0.86559  eV     1   --> A              
     e( 35 - 35) =      1.20763  eV     1   --> A              
     e( 36 - 36) =      1.22573  eV     1   --> A              
     e( 37 - 37) =      1.61988  eV     1   --> A              
     e( 38 - 38) =      1.66634  eV     1   --> A              
     e( 39 - 39) =      2.09633  eV     1   --> A              
     e( 40 - 40) =      2.12264  eV     1   --> A              
     e( 41 - 41) =      2.41834  eV     1   --> A              
     e( 42 - 42) =      2.46410  eV     1   --> A              
     e( 43 - 43) =      2.79375  eV     1   --> A              
     e( 44 - 44) =      2.91073  eV     1   --> A              
     e( 45 - 45) =      3.40112  eV     1   --> A              
     e( 46 - 46) =      3.49353  eV     1   --> A              
     e( 47 - 47) =      3.64327  eV     1   --> A              
     e( 48 - 48) =      3.70350  eV     1   --> A              
     e( 49 - 49) =      3.81258  eV     1   --> A              
     e( 50 - 50) =      3.85163  eV     1   --> A              
     e( 51 - 51) =      3.89196  eV     1   --> A              
     e( 52 - 52) =      3.96995  eV     1   --> A              
     e( 53 - 53) =      4.15055  eV     1   --> A              
     e( 54 - 54) =      4.19118  eV     1   --> A              
     e( 55 - 55) =      4.25340  eV     1   --> A              
     e( 56 - 56) =      4.34352  eV     1   --> A              
     e( 57 - 57) =      7.06602  eV     1   --> A              
     e( 58 - 58) =      7.26144  eV     1   --> A              
     e( 59 - 59) =      7.60424  eV     1   --> A              
     e( 60 - 60) =      7.65624  eV     1   --> A              
     e( 61 - 61) =      7.97344  eV     1   --> A              
     e( 62 - 62) =      8.07392  eV     1   --> A              
     e( 63 - 63) =      8.20994  eV     1   --> A              
     e( 64 - 64) =      8.30524  eV     1   --> A              
     e( 65 - 65) =      8.83705  eV     1   --> A              
     e( 66 - 66) =      9.02398  eV     1   --> A              
     e( 67 - 67) =      9.07665  eV     1   --> A              

 **************************************************************************

 **************************************************************************

                    xk=(   0.37500,   0.17757,   0.04751  )

     Band symmetry, C_1 (1)     point group:

     e(  1 -  2) =    -17.95358  eV     2   -->   2 A              
     e(  3 -  3) =    -17.95151  eV     1   --> A              
     e(  4 -  4) =    -17.95141  eV     1   --> A              
     e(  5 -  8) =    -17.92895  eV     4   -->   4 A              
     e(  9 - 10) =    -17.91756  eV     2   -->   2 A              
     e( 11 - 12) =    -17.91115  eV     2   -->   2 A              
     e( 13 - 14) =    -17.91086  eV     2   -->   2 A              
     e( 15 - 16) =    -17.90660  eV     2   -->   2 A              
     e( 17 - 18) =    -17.88686  eV     2   -->   2 A              
     e( 19 - 19) =    -17.88584  eV     1   --> A              
     e( 20 - 20) =    -17.88571  eV     1   --> A              
     e( 21 - 21) =     -7.86404  eV     1   --> A              
     e( 22 - 22) =     -7.82642  eV     1   --> A              
     e( 23 - 23) =     -6.87379  eV     1   --> A              
     e( 24 - 24) =     -6.87214  eV     1   --> A              
     e( 25 - 25) =     -6.60790  eV     1   --> A              
     e( 26 - 26) =     -6.55356  eV     1   --> A              
     e( 27 - 27) =     -6.44959  eV     1   --> A              
     e( 28 - 28) =     -6.43862  eV     1   --> A              
     e( 29 - 29) =     -5.33118  eV     1   --> A              
     e( 30 - 30) =     -5.29542  eV     1   --> A              
     e( 31 - 31) =     -4.40693  eV     1   --> A              
     e( 32 - 32) =     -4.39720  eV     1   --> A              
     e( 33 - 33) =      0.81330  eV     1   --> A              
     e( 34 - 34) =      0.86939  eV     1   --> A              
     e( 35 - 35) =      1.14664  eV     1   --> A              
     e( 36 - 36) =      1.20252  eV     1   --> A              
     e( 37 - 37) =      1.73540  eV     1   --> A              
     e( 38 - 38) =      1.78352  eV     1   --> A              
     e( 39 - 39) =      2.12149  eV     1   --> A              
     e( 40 - 40) =      2.16320  eV     1   --> A              
     e( 41 - 41) =      2.40535  eV     1   --> A              
     e( 42 - 42) =      2.50587  eV     1   --> A              
     e( 43 - 43) =      2.78575  eV     1   --> A              
     e( 44 - 44) =      2.92421  eV     1   --> A              
     e( 45 - 45) =      3.42883  eV     1   --> A              
     e( 46 - 46) =      3.48991  eV     1   --> A              
     e( 47 - 47) =      3.55123  eV     1   --> A              
     e( 48 - 48) =      3.65004  eV     1   --> A              
     e( 49 - 49) =      3.69246  eV     1   --> A              
     e( 50 - 50) =      3.88809  eV     1   --> A              
     e( 51 - 51) =      3.90802  eV     1   --> A              
     e( 52 - 52) =      3.94271  eV     1   --> A              
     e( 53 - 53) =      4.07020  eV     1   --> A              
     e( 54 - 54) =      4.11195  eV     1   --> A              
     e( 55 - 55) =      4.22257  eV     1   --> A              
     e( 56 - 56) =      4.23129  eV     1   --> A              
     e( 57 - 57) =      7.06986  eV     1   --> A              
     e( 58 - 58) =      7.28688  eV     1   --> A              
     e( 59 - 59) =      7.82803  eV     1   --> A              
     e( 60 - 60) =      7.89135  eV     1   --> A              
     e( 61 - 61) =      7.95716  eV     1   --> A              
     e( 62 - 62) =      8.07359  eV     1   --> A              
     e( 63 - 63) =      8.19662  eV     1   --> A              
     e( 64 - 64) =      8.28185  eV     1   --> A              
     e( 65 - 65) =      8.81284  eV     1   --> A              
     e( 66 - 66) =      8.98954  eV     1   --> A              
     e( 67 - 67) =      9.09505  eV     1   --> A              

 **************************************************************************

 **************************************************************************

                    xk=(   0.37500,   0.17757,   0.14253  )

     Band symmetry, C_1 (1)     point group:

     e(  1 -  2) =    -17.95358  eV     2   -->   2 A              
     e(  3 -  4) =    -17.95146  eV     2   -->   2 A              
     e(  5 -  8) =    -17.92892  eV     4   -->   4 A              
     e(  9 - 10) =    -17.91752  eV     2   -->   2 A              
     e( 11 - 12) =    -17.91110  eV     2   -->   2 A              
     e( 13 - 14) =    -17.91088  eV     2   -->   2 A              
     e( 15 - 16) =    -17.90658  eV     2   -->   2 A              
     e( 17 - 18) =    -17.88681  eV     2   -->   2 A              
     e( 19 - 20) =    -17.88580  eV     2   -->   2 A              
     e( 21 - 21) =     -7.85238  eV     1   --> A              
     e( 22 - 22) =     -7.83675  eV     1   --> A              
     e( 23 - 23) =     -6.88125  eV     1   --> A              
     e( 24 - 24) =     -6.88086  eV     1   --> A              
     e( 25 - 25) =     -6.58481  eV     1   --> A              
     e( 26 - 26) =     -6.56118  eV     1   --> A              
     e( 27 - 27) =     -6.44907  eV     1   --> A              
     e( 28 - 28) =     -6.43878  eV     1   --> A              
     e( 29 - 29) =     -5.32027  eV     1   --> A              
     e( 30 - 30) =     -5.30544  eV     1   --> A              
     e( 31 - 31) =     -4.40493  eV     1   --> A              
     e( 32 - 32) =     -4.40089  eV     1   --> A              
     e( 33 - 33) =      0.82366  eV     1   --> A              
     e( 34 - 34) =      0.84365  eV     1   --> A              
     e( 35 - 35) =      1.17778  eV     1   --> A              
     e( 36 - 36) =      1.20447  eV     1   --> A              
     e( 37 - 37) =      1.71877  eV     1   --> A              
     e( 38 - 38) =      1.73023  eV     1   --> A              
     e( 39 - 39) =      2.14887  eV     1   --> A              
     e( 40 - 40) =      2.22966  eV     1   --> A              
     e( 41 - 41) =      2.38944  eV     1   --> A              
     e( 42 - 42) =      2.50157  eV     1   --> A              
     e( 43 - 43) =      2.83007  eV     1   --> A              
     e( 44 - 44) =      2.87772  eV     1   --> A              
     e( 45 - 45) =      3.35361  eV     1   --> A              
     e( 46 - 46) =      3.46748  eV     1   --> A              
     e( 47 - 47) =      3.55908  eV     1   --> A              
     e( 48 - 48) =      3.60934  eV     1   --> A              
     e( 49 - 49) =      3.74794  eV     1   --> A              
     e( 50 - 50) =      3.79549  eV     1   --> A              
     e( 51 - 51) =      3.82082  eV     1   --> A              
     e( 52 - 52) =      3.90642  eV     1   --> A              
     e( 53 - 53) =      4.13656  eV     1   --> A              
     e( 54 - 54) =      4.23468  eV     1   --> A              
     e( 55 - 55) =      4.26008  eV     1   --> A              
     e( 56 - 56) =      4.33710  eV     1   --> A              
     e( 57 - 57) =      7.15296  eV     1   --> A              
     e( 58 - 58) =      7.22232  eV     1   --> A              
     e( 59 - 59) =      7.73851  eV     1   --> A              
     e( 60 - 60) =      7.80938  eV     1   --> A              
     e( 61 - 61) =      7.99200  eV     1   --> A              
     e( 62 - 62) =      8.16255  eV     1   --> A              
     e( 63 - 63) =      8.22385  eV     1   --> A              
     e( 64 - 64) =      8.31006  eV     1   --> A              
     e( 65 - 65) =      8.82679  eV     1   --> A              
     e( 66 - 66) =      8.89445  eV     1   --> A              
     e( 67 - 67) =      9.02598  eV     1   --> A              

 **************************************************************************

     BANDS        :   1m26.42s CPU   1m 0.36s WALL


   This run was terminated on:   5:28:58  29Jul2025            

=------------------------------------------------------------------------------=
   JOB DONE.
=------------------------------------------------------------------------------=
