
     Program PWSCF v.7.4.1 starts on 29Jul2025 at  4:56:24 

     This program is part of the open-source Quantum ESPRESSO suite
     for quantum simulation of materials; please cite
         "P. Giannozzi et al., J. Phys.:Condens. Matter 21 395502 (2009);
         "P. Giannozzi et al., J. Phys.:Condens. Matter 29 465901 (2017);
         "P. Giannozzi et al., J. Chem. Phys. 152 154105 (2020);
          URL http://www.quantum-espresso.org", 
     in publications or presentations arising from this work. More details at
     http://www.quantum-espresso.org/quote

     Parallel version (MPI & OpenMP), running on      32 processor cores
     Number of MPI processes:                 1
     Threads/MPI process:                    32

     MPI processes distributed on     1 nodes
     3151 MiB available memory on the printing compute node when the environment starts

     Waiting for input...
     Reading input from standard input
Warning: card &IONS ignored
Warning: card / ignored
Warning: card &CELL ignored
Warning: card / ignored

     Current dimensions of program PWSCF are:
     Max number of different atomic species (ntypx) = 10
     Max number of k-points (npk) =  40000
     Max angular momentum in pseudopotentials (lmaxx) =  4
     file Bi.pbe-dn-kjpaw_psl.1.0.0.UPF: wavefunction(s)  6P 5D renormalized
     file S.pbe-n-kjpaw_psl.1.0.0.UPF: wavefunction(s)  3S 3P renormalized
     file I.pbe-n-kjpaw_psl.1.0.0.UPF: wavefunction(s)  5S renormalized

     IMPORTANT: XC functional enforced from input :
     Exchange-correlation= VDW-DF
                           (   1   4   4   0   1   0   0)
     Any further DFT definition will be discarded
     Please, verify this is what you really want


     Atomic positions and unit cell read from directory:
     ../out/BiSI.save/

     Message from routine setup:
     using ibrav=0 with symmetry is DISCOURAGED, use correct ibrav instead

     Subspace diagonalization in iterative solution of the eigenvalue problem:
     a serial algorithm will be used


     G-vector sticks info
     --------------------
     sticks:   dense  smooth     PW     G-vecs:    dense   smooth      PW
     Sum        4257    2109    607               377537   133263   20197

     Using Slab Decomposition



     bravais-lattice index     =            0
     lattice parameter (alat)  =       7.9522  a.u.
     unit-cell volume          =    2794.0913 (a.u.)^3
     number of atoms/cell      =           12
     number of atomic types    =            3
     number of electrons       =       112.00
     number of Kohn-Sham states=           36
     kinetic-energy cutoff     =      50.0000  Ry
     charge density cutoff     =     400.0000  Ry
     Exchange-correlation= VDW-DF
                           (   1   4   4   0   1   0   0)

     celldm(1)=   7.952157  celldm(2)=   0.000000  celldm(3)=   0.000000
     celldm(4)=   0.000000  celldm(5)=   0.000000  celldm(6)=   0.000000

     crystal axes: (cart. coord. in units of alat)
               a(1) = (   1.000000   0.000000   0.000000 )  
               a(2) = (   0.000000   2.111892   0.000000 )  
               a(3) = (   0.000000   0.000000   2.630960 )  

     reciprocal axes: (cart. coord. in units 2 pi/alat)
               b(1) = (  1.000000  0.000000  0.000000 )  
               b(2) = (  0.000000  0.473509  0.000000 )  
               b(3) = (  0.000000  0.000000  0.380089 )  


     PseudoPot. # 1 for Bi read from file:
     ./pseudo/Bi.pbe-dn-kjpaw_psl.1.0.0.UPF
     MD5 check sum: 266ded784ae3bc462508ed03f0f37963
     Pseudo is Projector augmented-wave + core cor, Zval = 15.0
     Generated using &quot;atomic&quot; code by A. Dal Corso  v.6.2.2
     Shape of augmentation charge: PSQ
     Using radial grid of 1283 points,  6 beta functions with: 
                l(1) =   0
                l(2) =   0
                l(3) =   1
                l(4) =   1
                l(5) =   2
                l(6) =   2
     Q(r) pseudized with 0 coefficients 


     PseudoPot. # 2 for S  read from file:
     ./pseudo/S.pbe-n-kjpaw_psl.1.0.0.UPF
     MD5 check sum: fb45dfebcf3e72a4e1bd4a866ec2e262
     Pseudo is Projector augmented-wave + core cor, Zval =  6.0
     Generated using &quot;atomic&quot; code by A. Dal Corso  v.6.3
     Shape of augmentation charge: PSQ
     Using radial grid of 1151 points,  6 beta functions with: 
                l(1) =   0
                l(2) =   0
                l(3) =   1
                l(4) =   1
                l(5) =   2
                l(6) =   2
     Q(r) pseudized with 0 coefficients 


     PseudoPot. # 3 for I  read from file:
     ./pseudo/I.pbe-n-kjpaw_psl.1.0.0.UPF
     MD5 check sum: cd3d296c3308a581e1559a0c8a554cb5
     Pseudo is Projector augmented-wave + core cor, Zval =  7.0
     Generated using &quot;atomic&quot; code by A. Dal Corso  v.6.3
     Shape of augmentation charge: PSQ
     Using radial grid of 1247 points,  6 beta functions with: 
                l(1) =   0
                l(2) =   0
                l(3) =   1
                l(4) =   1
                l(5) =   2
                l(6) =   2
     Q(r) pseudized with 0 coefficients 


     atomic species   valence    mass     pseudopotential
     Bi               15.00   208.98040     Bi( 1.00)
     S                 6.00    32.06000     S ( 1.00)
     I                 7.00   126.90447     I ( 1.00)

      8 Sym. Ops., with inversion, found ( 6 have fractional translation)



   Cartesian axes

     site n.     atom                  positions (alat units)
         1        Bi     tau(   1) = (   0.2500000   0.8237940   0.9896329  )
         2        Bi     tau(   2) = (   0.7500000   1.2880976   1.6413269  )
         3        Bi     tau(   3) = (   0.2500000   1.8797398   0.3258470  )
         4        Bi     tau(   4) = (   0.7500000   0.2321518   2.3051128  )
         5        S      tau(   5) = (   0.7500000   0.7142734   1.4078108  )
         6        S      tau(   6) = (   0.2500000   0.3416724   0.0923309  )
         7        S      tau(   7) = (   0.7500000   1.7702192   2.5386289  )
         8        S      tau(   8) = (   0.2500000   1.3976182   1.2231490  )
         9        I      tau(   9) = (   0.2500000   1.0111568   2.1493021  )
        10        I      tau(  10) = (   0.7500000   0.0447890   0.8338222  )
        11        I      tau(  11) = (   0.2500000   2.0671026   1.7971376  )
        12        I      tau(  12) = (   0.7500000   1.1007348   0.4816577  )

     number of k points=    13
                       cart. coord. in units 2pi/alat
        k(    1) = (   0.0000000   0.0000000   0.0000000), wk =   0.1538462
        k(    2) = (   0.5000000   0.0000000   0.0000000), wk =   0.1538462
        k(    3) = (   0.5000000   0.2367546   0.0000000), wk =   0.1538462
        k(    4) = (   0.0000000   0.2367546   0.0000000), wk =   0.1538462
        k(    5) = (   0.0000000   0.0000000   0.0000000), wk =   0.1538462
        k(    6) = (   0.0000000   0.0000000   0.1900447), wk =   0.1538462
        k(    7) = (   0.5000000   0.0000000   0.1900447), wk =   0.1538462
        k(    8) = (   0.5000000   0.2367546   0.1900447), wk =   0.1538462
        k(    9) = (   0.0000000   0.2367546   0.1900447), wk =   0.1538462
        k(   10) = (   0.0000000   0.0000000   0.1900447), wk =   0.1538462
        k(   11) = (   0.0000000   0.2367546   0.0000000), wk =   0.1538462
        k(   12) = (   0.0000000   0.2367546   0.1900447), wk =   0.1538462
        k(   13) = (   0.5000000   0.2367546   0.0000000), wk =   0.1538462

     Dense  grid:   377537 G-vectors     FFT dimensions: (  54, 108, 144)

     Smooth grid:   133263 G-vectors     FFT dimensions: (  36,  80,  96)

     Estimated max dynamical RAM per process >       1.26 GB

     The potential is recalculated from file :
     ../out/BiSI.save/charge-density



     %%%%%%%%%%%%%%%%%%%%%%%%%%%%%%%%%%%%%%%%%%%%%%%%%%%%%%%%%%%%%%%%%%%%%%%%
     %                                                                      %
     % You are using vdW-DF, which was implemented by the Thonhauser group. %
     % Please cite the following two papers that made this development      %
     % possible and the two reviews that describe the various versions:     %
     %                                                                      %
     %   T. Thonhauser et al., PRL 115, 136402 (2015).                      %
     %   T. Thonhauser et al., PRB 76, 125112 (2007).                       %
     %   K. Berland et al., Rep. Prog. Phys. 78, 066501 (2015).             %
     %   D.C. Langreth et al., J. Phys.: Condens. Matter 21, 084203 (2009). %
     %                                                                      %
     % If you are calculating stress with vdW-DF, please also cite:         %
     %                                                                      %
     %   R. Sabatini et al., J. Phys.: Condens. Matter 24, 424209 (2012).   %
     %                                                                      %
     %%%%%%%%%%%%%%%%%%%%%%%%%%%%%%%%%%%%%%%%%%%%%%%%%%%%%%%%%%%%%%%%%%%%%%%%

     %%%%%%%%%%%%%%%%%%%%%%%%%%%%%%%%%%%%%%%%%%%%%%%%%%%%%%%%%%%%%%%%%%%%%%%%
     %                                                                      %
     %  vdW-DF NEWS:                                                        %
     %                                                                      %
     %  * vdW-DF3 is now available. DOI: 10.1021/acs.jctc.0c00471           %
     %    use with input_dft = 'vdW-DF3-opt1' or 'vdW-DF3-opt2'             %
     %                                                                      %
     %  * Unscreened and range-separated hybrid vdW-DF-cx functionals       %
     %    DOI: 10.1063/1.4986522 and 10.1088/1361-648X/ac2ad2               %
     %    use with input_dft = 'vdW-DF-cx0'    and 'vdW-DF-ahcx'            %
     %  * Unscreened and range-separated hybrid vdW-DF2-b86r functionals    %
     %    DOI: 10.1063/1.4986522 and DOI: 10.1103/PhysRevX.12.041003        %
     %    use with input_dft = 'vdW-DF2-br0' and 'vdW-DF2-ahbr'             %
     %                                                                      %
     %%%%%%%%%%%%%%%%%%%%%%%%%%%%%%%%%%%%%%%%%%%%%%%%%%%%%%%%%%%%%%%%%%%%%%%%


     Starting wfcs are   68 randomized atomic wfcs
     Checking if some PAW data can be deallocated... 

     Band Structure Calculation
     Davidson diagonalization with overlap

     ethr =  8.93E-10,  avg # of iterations = 34.4

     total cpu time spent up to now is      172.5 secs

     End of band structure calculation

          k = 0.0000 0.0000 0.0000 ( 16603 PWs)   bands (ev):

   -17.9493 -17.9489 -17.9425 -17.9425 -17.9377 -17.9377 -17.9371 -17.9370
   -17.9271 -17.9266 -17.9097 -17.9093 -17.9073 -17.9072 -17.9017 -17.9014
   -17.8924 -17.8920 -17.8854 -17.8854  -8.7416  -8.6087  -7.1889  -6.8843
    -6.7529  -6.7189  -6.6687  -6.6305  -5.1561  -4.8874  -3.5241  -3.3270
     1.1649   1.1944   1.8869   2.0544

          k = 0.5000 0.0000 0.0000 ( 16674 PWs)   bands (ev):

   -17.9546 -17.9546 -17.9546 -17.9546 -17.9267 -17.9267 -17.9266 -17.9266
   -17.9137 -17.9137 -17.9136 -17.9136 -17.9094 -17.9094 -17.9092 -17.9092
   -17.8857 -17.8857 -17.8854 -17.8854  -7.3554  -7.3554  -7.2831  -7.2831
    -6.4870  -6.4870  -6.4296  -6.4296  -4.9660  -4.9660  -4.9350  -4.9350
     0.8195   0.8195   0.9059   0.9059

          k = 0.5000 0.2368 0.0000 ( 16724 PWs)   bands (ev):

   -17.9546 -17.9546 -17.9546 -17.9546 -17.9267 -17.9267 -17.9267 -17.9267
   -17.9137 -17.9137 -17.9137 -17.9137 -17.9093 -17.9093 -17.9093 -17.9093
   -17.8856 -17.8856 -17.8856 -17.8856  -7.3177  -7.3177  -7.3177  -7.3177
    -6.4620  -6.4620  -6.4620  -6.4620  -4.9500  -4.9500  -4.9500  -4.9500
     0.8813   0.8813   0.8813   0.8813

          k = 0.0000 0.2368 0.0000 ( 16626 PWs)   bands (ev):

   -17.9492 -17.9492 -17.9425 -17.9425 -17.9377 -17.9377 -17.9370 -17.9370
   -17.9269 -17.9269 -17.9095 -17.9095 -17.9072 -17.9072 -17.9015 -17.9015
   -17.8923 -17.8923 -17.8854 -17.8854  -8.6714  -8.6714  -7.0702  -7.0702
    -6.8536  -6.8536  -6.5010  -6.5010  -5.0238  -5.0238  -3.4053  -3.4053
     1.0836   1.0836   1.9761   1.9761

          k = 0.0000 0.0000 0.0000 ( 16603 PWs)   bands (ev):

   -17.9493 -17.9489 -17.9425 -17.9425 -17.9377 -17.9377 -17.9371 -17.9370
   -17.9271 -17.9266 -17.9097 -17.9093 -17.9073 -17.9072 -17.9017 -17.9014
   -17.8924 -17.8920 -17.8854 -17.8854  -8.7416  -8.6087  -7.1889  -6.8843
    -6.7529  -6.7189  -6.6687  -6.6305  -5.1561  -4.8874  -3.5241  -3.3270
     1.1649   1.1944   1.8869   2.0544

          k = 0.0000 0.0000 0.1900 ( 16608 PWs)   bands (ev):

   -17.9491 -17.9491 -17.9425 -17.9425 -17.9377 -17.9377 -17.9370 -17.9370
   -17.9269 -17.9269 -17.9095 -17.9095 -17.9073 -17.9073 -17.9015 -17.9015
   -17.8922 -17.8922 -17.8854 -17.8854  -8.6783  -8.6783  -7.0743  -7.0743
    -6.7451  -6.7451  -6.5875  -6.5875  -5.0513  -5.0513  -3.4067  -3.4067
     1.1518   1.1518   1.9666   1.9666

          k = 0.5000 0.0000 0.1900 ( 16692 PWs)   bands (ev):

   -17.9547 -17.9547 -17.9545 -17.9545 -17.9267 -17.9267 -17.9267 -17.9267
   -17.9138 -17.9138 -17.9136 -17.9136 -17.9094 -17.9094 -17.9093 -17.9093
   -17.8857 -17.8857 -17.8854 -17.8854  -7.3222  -7.3222  -7.3187  -7.3187
    -6.4839  -6.4839  -6.4298  -6.4298  -4.9544  -4.9544  -4.9476  -4.9476
     0.8331   0.8331   1.0505   1.0505

          k = 0.5000 0.2368 0.1900 ( 16712 PWs)   bands (ev):

   -17.9546 -17.9546 -17.9546 -17.9546 -17.9267 -17.9267 -17.9267 -17.9267
   -17.9137 -17.9137 -17.9137 -17.9137 -17.9094 -17.9094 -17.9094 -17.9094
   -17.8856 -17.8856 -17.8856 -17.8856  -7.3172  -7.3172  -7.3172  -7.3172
    -6.4632  -6.4632  -6.4632  -6.4632  -4.9489  -4.9489  -4.9489  -4.9489
     0.8990   0.8990   0.8990   0.8990

          k = 0.0000 0.2368 0.1900 ( 16624 PWs)   bands (ev):

   -17.9492 -17.9492 -17.9425 -17.9425 -17.9377 -17.9377 -17.9371 -17.9371
   -17.9269 -17.9269 -17.9096 -17.9096 -17.9073 -17.9073 -17.9015 -17.9015
   -17.8922 -17.8922 -17.8855 -17.8855  -8.6690  -8.6690  -7.1630  -7.1630
    -6.6276  -6.6276  -6.6243  -6.6243  -5.0460  -5.0460  -3.3971  -3.3971
     1.1165   1.1165   1.9800   1.9800

          k = 0.0000 0.0000 0.1900 ( 16608 PWs)   bands (ev):

   -17.9491 -17.9491 -17.9425 -17.9425 -17.9377 -17.9377 -17.9370 -17.9370
   -17.9269 -17.9269 -17.9095 -17.9095 -17.9073 -17.9073 -17.9015 -17.9015
   -17.8922 -17.8922 -17.8854 -17.8854  -8.6783  -8.6783  -7.0743  -7.0743
    -6.7451  -6.7451  -6.5875  -6.5875  -5.0513  -5.0513  -3.4067  -3.4067
     1.1518   1.1518   1.9666   1.9666

          k = 0.0000 0.2368 0.0000 ( 16626 PWs)   bands (ev):

   -17.9492 -17.9492 -17.9425 -17.9425 -17.9377 -17.9377 -17.9370 -17.9370
   -17.9269 -17.9269 -17.9095 -17.9095 -17.9072 -17.9072 -17.9015 -17.9015
   -17.8923 -17.8923 -17.8854 -17.8854  -8.6714  -8.6714  -7.0702  -7.0702
    -6.8536  -6.8536  -6.5010  -6.5010  -5.0238  -5.0238  -3.4053  -3.4053
     1.0836   1.0836   1.9761   1.9761

          k = 0.0000 0.2368 0.1900 ( 16624 PWs)   bands (ev):

   -17.9492 -17.9492 -17.9425 -17.9425 -17.9377 -17.9377 -17.9371 -17.9371
   -17.9269 -17.9269 -17.9096 -17.9096 -17.9073 -17.9073 -17.9015 -17.9015
   -17.8922 -17.8922 -17.8855 -17.8855  -8.6690  -8.6690  -7.1630  -7.1630
    -6.6276  -6.6276  -6.6243  -6.6243  -5.0460  -5.0460  -3.3971  -3.3971
     1.1165   1.1165   1.9800   1.9800

          k = 0.5000 0.2368 0.0000 ( 16724 PWs)   bands (ev):

   -17.9546 -17.9546 -17.9546 -17.9546 -17.9267 -17.9267 -17.9267 -17.9267
   -17.9137 -17.9137 -17.9137 -17.9137 -17.9093 -17.9093 -17.9093 -17.9093
   -17.8856 -17.8856 -17.8856 -17.8856  -7.3177  -7.3177  -7.3177  -7.3177
    -6.4620  -6.4620  -6.4620  -6.4620  -4.9500  -4.9500  -4.9500  -4.9500
     0.8813   0.8813   0.8813   0.8813

     Writing all to output data dir ../out/BiSI.save/ :
     XML data file, pseudopotentials, collected wavefunctions

     init_run     :     71.44s CPU     57.63s WALL (       1 calls)
     electrons    :   2533.74s CPU    114.69s WALL (       1 calls)

     Called by init_run:
     wfcinit      :      0.00s CPU      0.00s WALL (       1 calls)
     potinit      :     66.84s CPU     54.93s WALL (       1 calls)
     hinit0       :      1.22s CPU      0.55s WALL (       1 calls)

     Called by electrons:
     c_bands      :   2533.74s CPU    114.69s WALL (       1 calls)
     v_of_rho     :     54.45s CPU     54.16s WALL (       1 calls)
     newd         :      2.89s CPU      2.06s WALL (       1 calls)
     PAW_pot      :     12.20s CPU      0.74s WALL (       1 calls)
     vdW_kernel   :     52.71s CPU     52.72s WALL (       1 calls)

     Called by c_bands:
     init_us_2    :      4.37s CPU      0.41s WALL (      13 calls)
     cegterg      :   2394.64s CPU    108.90s WALL (      27 calls)

     Called by *egterg:
     cdiaghg      :      7.35s CPU      0.98s WALL (     460 calls)
     h_psi        :   1983.72s CPU     76.82s WALL (     487 calls)
     s_psi        :     58.84s CPU      3.59s WALL (     487 calls)
     g_psi        :    102.34s CPU      6.98s WALL (     447 calls)

     Called by h_psi:
     h_psi:calbec :     75.03s CPU      3.31s WALL (     487 calls)
     vloc_psi     :   1769.41s CPU     63.74s WALL (     487 calls)
     add_vuspsi   :     18.91s CPU      1.98s WALL (     487 calls)

     General routines
     calbec       :     75.01s CPU      3.31s WALL (     487 calls)
     fft          :      0.60s CPU      0.49s WALL (      63 calls)
     ffts         :      0.00s CPU      0.00s WALL (       1 calls)
     fftw         :    993.71s CPU     33.41s WALL (   19200 calls)
     interpolate  :      0.01s CPU      0.01s WALL (       1 calls)
     davcio       :      0.34s CPU      0.05s WALL (      26 calls)

     Parallel routines

     PWSCF        :  43m28.25s CPU   2m52.67s WALL


   This run was terminated on:   4:59:16  29Jul2025            

=------------------------------------------------------------------------------=
   JOB DONE.
=------------------------------------------------------------------------------=
