
     Program PWSCF v.7.4.1 starts on 29Jul2025 at  4: 8:15 

     This program is part of the open-source Quantum ESPRESSO suite
     for quantum simulation of materials; please cite
         "P. Giannozzi et al., J. Phys.:Condens. Matter 21 395502 (2009);
         "P. Giannozzi et al., J. Phys.:Condens. Matter 29 465901 (2017);
         "P. Giannozzi et al., J. Chem. Phys. 152 154105 (2020);
          URL http://www.quantum-espresso.org", 
     in publications or presentations arising from this work. More details at
     http://www.quantum-espresso.org/quote

     Parallel version (MPI & OpenMP), running on      32 processor cores
     Number of MPI processes:                 1
     Threads/MPI process:                    32

     MPI processes distributed on     1 nodes
     4066 MiB available memory on the printing compute node when the environment starts

     Waiting for input...
     Reading input from standard input
Warning: card &CELL ignored
Warning: card / ignored

     Current dimensions of program PWSCF are:
     Max number of different atomic species (ntypx) = 10
     Max number of k-points (npk) =  40000
     Max angular momentum in pseudopotentials (lmaxx) =  4
     file Bi.pbe-dn-kjpaw_psl.1.0.0.UPF: wavefunction(s)  6P 5D renormalized
     file S.pbe-n-kjpaw_psl.1.0.0.UPF: wavefunction(s)  3S 3P renormalized
     file I.pbe-n-kjpaw_psl.1.0.0.UPF: wavefunction(s)  5S renormalized

     IMPORTANT: XC functional enforced from input :
     Exchange-correlation= VDW-DF
                           (   1   4   4   0   1   0   0)
     Any further DFT definition will be discarded
     Please, verify this is what you really want

     Message from routine setup:
     using ibrav=0 with symmetry is DISCOURAGED, use correct ibrav instead

     Subspace diagonalization in iterative solution of the eigenvalue problem:
     a serial algorithm will be used


     G-vector sticks info
     --------------------
     sticks:   dense  smooth     PW     G-vecs:    dense   smooth      PW
     Sum        4257    2109    569               377537   133263   18385

     Using Slab Decomposition



     bravais-lattice index     =            0
     lattice parameter (alat)  =       7.9522  a.u.
     unit-cell volume          =    2794.0913 (a.u.)^3
     number of atoms/cell      =           12
     number of atomic types    =            3
     number of electrons       =       112.00
     number of Kohn-Sham states=           56
     kinetic-energy cutoff     =      50.0000  Ry
     charge density cutoff     =     400.0000  Ry
     scf convergence threshold =      1.0E-06
     mixing beta               =       0.7000
     number of iterations used =            8  plain     mixing
     Exchange-correlation= VDW-DF
                           (   1   4   4   0   1   0   0)

     celldm(1)=   7.952157  celldm(2)=   0.000000  celldm(3)=   0.000000
     celldm(4)=   0.000000  celldm(5)=   0.000000  celldm(6)=   0.000000

     crystal axes: (cart. coord. in units of alat)
               a(1) = (   1.000000   0.000000   0.000000 )  
               a(2) = (   0.000000   2.111892   0.000000 )  
               a(3) = (   0.000000   0.000000   2.630960 )  

     reciprocal axes: (cart. coord. in units 2 pi/alat)
               b(1) = (  1.000000  0.000000  0.000000 )  
               b(2) = (  0.000000  0.473509  0.000000 )  
               b(3) = (  0.000000  0.000000  0.380089 )  


     PseudoPot. # 1 for Bi read from file:
     ./pseudo/Bi.pbe-dn-kjpaw_psl.1.0.0.UPF
     MD5 check sum: 266ded784ae3bc462508ed03f0f37963
     Pseudo is Projector augmented-wave + core cor, Zval = 15.0
     Generated using &quot;atomic&quot; code by A. Dal Corso  v.6.2.2
     Shape of augmentation charge: PSQ
     Using radial grid of 1283 points,  6 beta functions with: 
                l(1) =   0
                l(2) =   0
                l(3) =   1
                l(4) =   1
                l(5) =   2
                l(6) =   2
     Q(r) pseudized with 0 coefficients 


     PseudoPot. # 2 for S  read from file:
     ./pseudo/S.pbe-n-kjpaw_psl.1.0.0.UPF
     MD5 check sum: fb45dfebcf3e72a4e1bd4a866ec2e262
     Pseudo is Projector augmented-wave + core cor, Zval =  6.0
     Generated using &quot;atomic&quot; code by A. Dal Corso  v.6.3
     Shape of augmentation charge: PSQ
     Using radial grid of 1151 points,  6 beta functions with: 
                l(1) =   0
                l(2) =   0
                l(3) =   1
                l(4) =   1
                l(5) =   2
                l(6) =   2
     Q(r) pseudized with 0 coefficients 


     PseudoPot. # 3 for I  read from file:
     ./pseudo/I.pbe-n-kjpaw_psl.1.0.0.UPF
     MD5 check sum: cd3d296c3308a581e1559a0c8a554cb5
     Pseudo is Projector augmented-wave + core cor, Zval =  7.0
     Generated using &quot;atomic&quot; code by A. Dal Corso  v.6.3
     Shape of augmentation charge: PSQ
     Using radial grid of 1247 points,  6 beta functions with: 
                l(1) =   0
                l(2) =   0
                l(3) =   1
                l(4) =   1
                l(5) =   2
                l(6) =   2
     Q(r) pseudized with 0 coefficients 


     atomic species   valence    mass     pseudopotential
     Bi               15.00   208.98040     Bi( 1.00)
     S                 6.00    32.06000     S ( 1.00)
     I                 7.00   126.90447     I ( 1.00)

      8 Sym. Ops., with inversion, found ( 6 have fractional translation)



   Cartesian axes

     site n.     atom                  positions (alat units)
         1        Bi     tau(   1) = (   0.2500000   0.8237940   0.9896329  )
         2        Bi     tau(   2) = (   0.7500000   1.2880976   1.6413269  )
         3        Bi     tau(   3) = (   0.2500000   1.8797398   0.3258470  )
         4        Bi     tau(   4) = (   0.7500000   0.2321518   2.3051128  )
         5        S      tau(   5) = (   0.7500000   0.7142734   1.4078108  )
         6        S      tau(   6) = (   0.2500000   0.3416724   0.0923309  )
         7        S      tau(   7) = (   0.7500000   1.7702192   2.5386289  )
         8        S      tau(   8) = (   0.2500000   1.3976182   1.2231490  )
         9        I      tau(   9) = (   0.2500000   1.0111568   2.1493021  )
        10        I      tau(  10) = (   0.7500000   0.0447890   0.8338222  )
        11        I      tau(  11) = (   0.2500000   2.0671026   1.7971376  )
        12        I      tau(  12) = (   0.7500000   1.1007348   0.4816577  )

     number of k points=     1
                       cart. coord. in units 2pi/alat
        k(    1) = (   0.2500000   0.1183773   0.0950224), wk =   2.0000000

     Dense  grid:   377537 G-vectors     FFT dimensions: (  54, 108, 144)

     Smooth grid:   133263 G-vectors     FFT dimensions: (  36,  80,  96)

     Estimated max dynamical RAM per process >       1.37 GB

     Initial potential from superposition of free atoms

     starting charge     111.9963, renormalised to     112.0000


     %%%%%%%%%%%%%%%%%%%%%%%%%%%%%%%%%%%%%%%%%%%%%%%%%%%%%%%%%%%%%%%%%%%%%%%%
     %                                                                      %
     % You are using vdW-DF, which was implemented by the Thonhauser group. %
     % Please cite the following two papers that made this development      %
     % possible and the two reviews that describe the various versions:     %
     %                                                                      %
     %   T. Thonhauser et al., PRL 115, 136402 (2015).                      %
     %   T. Thonhauser et al., PRB 76, 125112 (2007).                       %
     %   K. Berland et al., Rep. Prog. Phys. 78, 066501 (2015).             %
     %   D.C. Langreth et al., J. Phys.: Condens. Matter 21, 084203 (2009). %
     %                                                                      %
     % If you are calculating stress with vdW-DF, please also cite:         %
     %                                                                      %
     %   R. Sabatini et al., J. Phys.: Condens. Matter 24, 424209 (2012).   %
     %                                                                      %
     %%%%%%%%%%%%%%%%%%%%%%%%%%%%%%%%%%%%%%%%%%%%%%%%%%%%%%%%%%%%%%%%%%%%%%%%

     %%%%%%%%%%%%%%%%%%%%%%%%%%%%%%%%%%%%%%%%%%%%%%%%%%%%%%%%%%%%%%%%%%%%%%%%
     %                                                                      %
     %  vdW-DF NEWS:                                                        %
     %                                                                      %
     %  * vdW-DF3 is now available. DOI: 10.1021/acs.jctc.0c00471           %
     %    use with input_dft = 'vdW-DF3-opt1' or 'vdW-DF3-opt2'             %
     %                                                                      %
     %  * Unscreened and range-separated hybrid vdW-DF-cx functionals       %
     %    DOI: 10.1063/1.4986522 and 10.1088/1361-648X/ac2ad2               %
     %    use with input_dft = 'vdW-DF-cx0'    and 'vdW-DF-ahcx'            %
     %  * Unscreened and range-separated hybrid vdW-DF2-b86r functionals    %
     %    DOI: 10.1063/1.4986522 and DOI: 10.1103/PhysRevX.12.041003        %
     %    use with input_dft = 'vdW-DF2-br0' and 'vdW-DF2-ahbr'             %
     %                                                                      %
     %%%%%%%%%%%%%%%%%%%%%%%%%%%%%%%%%%%%%%%%%%%%%%%%%%%%%%%%%%%%%%%%%%%%%%%%


     Starting wfcs are   68 randomized atomic wfcs
     Checking if some PAW data can be deallocated... 

     total cpu time spent up to now is       58.5 secs

     Self-consistent Calculation

     iteration #  1     ecut=    50.00 Ry     beta= 0.70
     Davidson diagonalization with overlap
     ethr =  1.00E-02,  avg # of iterations =  1.0

     Threshold (ethr) on eigenvalues was too large:
     Diagonalizing with lowered threshold

     Davidson diagonalization with overlap
     ethr =  9.39E-04,  avg # of iterations =  2.0

     total cpu time spent up to now is       68.0 secs

     total energy              =   -5461.64667052 Ry
     estimated scf accuracy    <       0.97966353 Ry

     iteration #  2     ecut=    50.00 Ry     beta= 0.70
     Davidson diagonalization with overlap
     ethr =  8.75E-04,  avg # of iterations =  5.0

     total cpu time spent up to now is       75.7 secs

     total energy              =   -5461.95845842 Ry
     estimated scf accuracy    <       1.21928258 Ry

     iteration #  3     ecut=    50.00 Ry     beta= 0.70
     Davidson diagonalization with overlap
     ethr =  8.75E-04,  avg # of iterations =  4.0

     total cpu time spent up to now is       83.2 secs

     total energy              =   -5462.10875973 Ry
     estimated scf accuracy    <       0.04856010 Ry

     iteration #  4     ecut=    50.00 Ry     beta= 0.70
     Davidson diagonalization with overlap
     ethr =  4.34E-05,  avg # of iterations =  5.0

     total cpu time spent up to now is       91.0 secs

     total energy              =   -5462.14530506 Ry
     estimated scf accuracy    <       0.02357432 Ry

     iteration #  5     ecut=    50.00 Ry     beta= 0.70
     Davidson diagonalization with overlap
     ethr =  2.10E-05,  avg # of iterations =  2.0

     total cpu time spent up to now is       98.0 secs

     total energy              =   -5462.14615251 Ry
     estimated scf accuracy    <       0.00485462 Ry

     iteration #  6     ecut=    50.00 Ry     beta= 0.70
     Davidson diagonalization with overlap
     ethr =  4.33E-06,  avg # of iterations =  4.0

     total cpu time spent up to now is      105.4 secs

     total energy              =   -5462.14751754 Ry
     estimated scf accuracy    <       0.00029388 Ry

     iteration #  7     ecut=    50.00 Ry     beta= 0.70
     Davidson diagonalization with overlap
     ethr =  2.62E-07,  avg # of iterations =  4.0

     total cpu time spent up to now is      113.1 secs

     total energy              =   -5462.14763326 Ry
     estimated scf accuracy    <       0.00006544 Ry

     iteration #  8     ecut=    50.00 Ry     beta= 0.70
     Davidson diagonalization with overlap
     ethr =  5.84E-08,  avg # of iterations =  2.0

     total cpu time spent up to now is      120.1 secs

     total energy              =   -5462.14763714 Ry
     estimated scf accuracy    <       0.00000720 Ry

     iteration #  9     ecut=    50.00 Ry     beta= 0.70
     Davidson diagonalization with overlap
     ethr =  6.43E-09,  avg # of iterations =  6.0

     total cpu time spent up to now is      128.2 secs

     total energy              =   -5462.14764131 Ry
     estimated scf accuracy    <       0.00001060 Ry

     iteration # 10     ecut=    50.00 Ry     beta= 0.70
     Davidson diagonalization with overlap
     ethr =  6.43E-09,  avg # of iterations =  2.0

     total cpu time spent up to now is      135.2 secs

     total energy              =   -5462.14764134 Ry
     estimated scf accuracy    <       0.00000181 Ry

     iteration # 11     ecut=    50.00 Ry     beta= 0.70
     Davidson diagonalization with overlap
     ethr =  1.62E-09,  avg # of iterations =  5.0

     total cpu time spent up to now is      143.0 secs

     End of self-consistent calculation

          k = 0.2500 0.1184 0.0950 ( 16698 PWs)   bands (ev):

   -17.9476 -17.9476 -17.9439 -17.9437 -17.9337 -17.9335 -17.9322 -17.9322
   -17.9197 -17.9195 -17.9087 -17.9085 -17.9078 -17.9077 -17.9021 -17.9020
   -17.8872 -17.8871 -17.8846 -17.8844  -8.3210  -8.2594  -6.8958  -6.8139
    -6.6892  -6.6045  -6.5122  -6.4604  -5.3638  -5.2727  -3.8988  -3.8563
     1.0088   1.0515   1.2720   1.4889   1.7587   1.9593   2.2589   2.4422
     2.7154   2.8171   2.8819   3.1451   3.3026   3.4905   3.5026   3.7936
     4.0055   4.0098   4.1118   4.1291   4.1822   4.2429   4.3111   4.4200

     highest occupied level (ev):     4.4200

!    total energy              =   -5462.14764199 Ry
     total all-electron energy =   -232428.373884 Ry
     estimated scf accuracy    <       0.00000021 Ry

     The total energy is the sum of the following terms:
     one-electron contribution =    -356.55026906 Ry
     hartree contribution      =     240.43440011 Ry
     xc contribution           =    -217.16154375 Ry
     ewald contribution        =    -480.50162908 Ry
     one-center paw contrib.   =   -4648.36860020 Ry

     convergence has been achieved in  11 iterations

     Writing all to output data dir ../out/BiSI.save/ :
     XML data file, charge density, pseudopotentials, collected wavefunctions

     init_run     :     87.55s CPU     58.29s WALL (       1 calls)
     electrons    :    719.68s CPU     84.59s WALL (       1 calls)

     Called by init_run:
     wfcinit      :     15.18s CPU      0.57s WALL (       1 calls)
     potinit      :     66.70s CPU     54.97s WALL (       1 calls)
     hinit0       :      1.35s CPU      0.54s WALL (       1 calls)

     Called by electrons:
     c_bands      :    371.81s CPU     15.31s WALL (      12 calls)
     sum_band     :    124.37s CPU     21.09s WALL (      12 calls)
     v_of_rho     :     75.92s CPU     71.21s WALL (      12 calls)
     newd         :     40.17s CPU     24.05s WALL (      12 calls)
     PAW_pot      :    173.64s CPU      9.48s WALL (      12 calls)
     mix_rho      :      3.66s CPU      0.27s WALL (      12 calls)
     vdW_kernel   :     52.70s CPU     52.71s WALL (       1 calls)

     Called by c_bands:
     init_us_2    :      7.38s CPU      0.54s WALL (      25 calls)
     cegterg      :    366.34s CPU     15.05s WALL (      12 calls)

     Called by *egterg:
     cdiaghg      :      1.08s CPU      0.19s WALL (      53 calls)
     h_psi        :    321.29s CPU     11.44s WALL (      55 calls)
     s_psi        :      7.89s CPU      0.44s WALL (      55 calls)
     g_psi        :      9.17s CPU      0.60s WALL (      42 calls)

     Called by h_psi:
     h_psi:calbec :      9.46s CPU      0.45s WALL (      55 calls)
     vloc_psi     :    296.27s CPU      9.96s WALL (      55 calls)
     add_vuspsi   :      2.82s CPU      0.23s WALL (      55 calls)

     General routines
     calbec       :     11.07s CPU      0.56s WALL (      67 calls)
     fft          :      8.69s CPU      5.72s WALL (     755 calls)
     ffts         :      0.07s CPU      0.06s WALL (      24 calls)
     fftw         :    242.26s CPU      7.70s WALL (    4652 calls)
     interpolate  :      0.14s CPU      0.14s WALL (      12 calls)

     Parallel routines

     PWSCF        :  13m27.89s CPU   2m23.11s WALL


   This run was terminated on:   4:10:38  29Jul2025            

=------------------------------------------------------------------------------=
   JOB DONE.
=------------------------------------------------------------------------------=
